[ pull_layer ]
  11763  11764  11765  11766  11767  11769  11770  11771  11772  11773  11774
  11775  11899  11900  11901  11902  11903  11904  11905  11906  11907  11908
  11941  11942  11943  11944  11945  11946  11947  11948  11949  11950  11951
  11952  11953  11954  11955  11956  11959  12006  12008  12088  12089  12090
  12091  12092  12093  12094  12095  12096  12097  12098  12099  12100  12101
  12102  12103  12104  12105  12106  12107  12108  12109  12110  12112  12114
  12115  12116  12117  12118  12119  12120  12121  12122  12123  12124  12125
  12126  12127  12128  12129  12169  12193  12194  12195  12196  12197  12198
  12199  12200  12201  12296  12297  12298  12303  12307  12314  12316  12321
  12323  12324  12325  12326  12327  12328  12329  12330  12331  12332  12333
  12334  12335  12336  12337  12338  12339  12340  12341  12342  12343  12344
  12345  12346  12347  12348  12349  12350  12351  12353  12355  12357  12358
  12401  12402  12403  12404  12406  12407  12408  12409  12410  12411  12412
  12413  12414  12415  12416  12417  12418  12419  12420  12421  12450  12457
  12462  12463  12464  12465  12466  12467  12468  12469  12717  12719  12720
  12833  12834  12835  12836  12837  12838  12839  12840  12841  12843  12844
  12845  12846  12847  12866  13095  13096  13102  13103  13104  13105  13106
  13107  13108  13109  13110  13111  13112  13113  13114  13115  13116  13117
  13118  13119  13120  13121  13122  13123  13124  13125  13126  13127  13128
  13129  13130  13131  13132  13133  13134  13135  13136  13137  13138  13139
  13140  13141  13142  13143  13234  13235  13236  13237  13238  13239  13240
  13241  13242  13243  13244  13245  13246  13247  13248  13249  13250  13251
  13252  13253  13254  13255  13256  13257  13258  13259  13260  13261  13262
  13263  13264  13265  13266  13267  13268  13269  13271  13276  13277  13278
  13279  13280  13281  13282  13283  13284  13285  13286  13287  13288  13289
  13290  13291  13292  13335  13336  13337  13338  13339  13340  13341  13342
  13343  13344  13345  13346  13347  13348  13349  13350  13351  13352  13353
  13354  13355  13356  13357  13358  13359  13360  13361  13362  13363  13364
  13365  13366  13367  13368  13369  13370  13371  13372  13373  13374  13375
  13376  13393  13394  13395  13396  13397  13398  13399  13400  13401  13402
  13403  13404  13405  13406  13407  13408  13409  13410  13411  13412  13413
  13414  13415  13416  13417  13418  13419  13420  13421  13430  13431  13432
  13433  13436  13437  13438  13439  13440  13441  13442  13443  13444  13445
  13446  13447  13448  13449  13450  13451  13452  13453  13454  13455  13456
  13457  13458  13459  13460  13462  13463  13482  13483  13484  13485  13486
  13487  13488  13489  13490  13491  13492  13493  13494  13495  13496  13497
  13498  13499  13500  13501  13502  13510  13511  13512  13513  13514  13515
  13516  13517  13518  13519  13520  13521  13522  13523  13524  13525  13526
  13527  13528  13556  13557  13558  13559  13560  13561  13562  13563  13564
  13565  13566  13567  13568  13569  13570  13571  13572  13573  13574  13575
  13576  13577  13578  13579  13580  13581  13582  13583  13584  13585  13586
  13587  13588  13589  13590  13591  13592  13593  13594  13595  13596  13597
  13661  13662  13663  13664  13665  13666  13667  13668  13669  13670  13671
  13672  13673  13674  13675  13676  13677  13678  13679  13680  13681  13809
  13810  13811  13812  13813  13814  13815  13816  13817  13818  13819  13820
  13821  13822  13823  13824  13825  13826  13827  13828  13829  13830  13831
  13832  13834  13846  13848  13849  13850  13851  13852  13853  13854  13855
  13856  13857  13858  13859  13860  13861  13862  13863  13864  13865  13866
  13867  13868  13869  13870  13871  13872  13873  13874  13875  13876  13877
  13878  13879  13880  13881  13882  13883  13884  13885  13886  13887  13888
  13889  13890  13891  13892  13893  13894  13895  13896  13897  13898  13899
  13900  13901  13902  13903  13904  13905  13906  13907  13908  13909  13910
  13911  13912  13913  13914  13915  13916  13917  13918  13919  13920  13921
  13922  13923  13924  13925  13926  13927  13928  13929  13930  13931  13932
  13933  13934  13935  13936  13937  13938  13939  13940  13941  13942  13943
  13944  13945  13946  13947  13948  13949  13950  13951  13952  13953  13954
  13955  13956  13957  13958  13959  13960  13961  13962  13963  13964  13965
  13966  13967  13968  13969  13970  13971  13972  13973  13974  13975  13976
  13977  13978  13979  13980  13981  13982  13983  13984  13985  13986  13987
  13988  13989  13990  13991  13992  13993  13994  13995  13996  13997  13998
  13999  14000  14001  14002  14003  14004  14005  14006  14007  14008  14009
  14010  14011  14012  14013  14014  14015  14016  14017  14018  14019  14020
  14021  14022  14023  14024  14025  14026  14027  14028  14029  14030  14031
  14032  14033  14034  14035  14036  14037  14038  14039  14040  14041  14042
  14043  14044  14045  14046  14047  14048  14049  14050  14051  14052  14053
  14054  14055  14056  14057  14058  14059  14060  14061  14062  14063  14064
  14065  14066  14067  14068  14069  14070  14071  14072  14073  14074  14075
  14076  14077  14078  14079  14080  14081  14082  14083  14084  14085  14086
  14087  14088  14089  14090  14091  14092  14093  14094  14095  14096  14097
  14098  14099  14100  14101  14102  14103  14104  14105  14106  14107  14108
  14109  14110  14111  14112  14113  14114  14115  14116  14117  14118  14119
  14120  14121  14122  14123  14124  14125  14126  14127  14128  14129  14130
  14131  14132  14133  14134  14135  14136  14137  14138  14139  14140  14141
  14142  14143  14144  14145  14146  14147  14148  14149  14150  14151  14152
  14153  14154  14155  14156  14157  14158  14159  14160  14161  14162  14163
  14164  14165  14166  14167  14168  14169  14170  14171  14172  14173  14174
  14175  14176  14177  14178  14179  14180  14181  14182  14183  14184  14185
  14186  14187  14188  14189  14190  14191  14192  14193  14194  14195  14196
  14197  14198  14199  14200  14201  14202  14203  14204  14205  14206  14207
  14208  14209  14210  14211  14212  14213  14214  14215  14216  14217  14218
  14219  14220  14221  14222  14223  14224  14225  14226  14227  14228  14229
  14230  14231  14232  14233  14234  14235  14236  14237  14238  14239  14240
  14241  14242  14243  14244  14245  14246  14247  14248  14249  14250  14251
  14252  14253  14254  14255  14256  14257  14258  14259  14260  14261  14262
  14263  14264  14265  14266  14267  14268  14269  14270  14271  14272  14273
  14274  14275  14276  14277  14278  14279  14280  14281  14282  14283  14284
  14285  14286  14287  14288  14289  14290  14291  14292  14293  14294  14295
  14296  14297  14298  14299  14300  14301  14302  14303  14304  14305  14306
  14307  14308  14309  14310  14311  14312  14313  14314  14315  14316  14317
  14318  14319  14320  14321  14322  14323  14324  14325  14326  14327  14328
  14329  14330  14331  14332  14333  14334  14335  14336  14337  14338  14339
  14340  14341  14342  14343  14344  14345  14346  14347  14348  14349  14350
  14351  14352  14353  14354  14355  14356  14357  14358  14359  14360  14361
  14362  14363  14364  14365  14366  14367  14368  14369  14370  14371  14372
  14373  14374  14375  14376  14377  14378  14379  14380  14381  14382  14383
  14384  14385  14386  14387  14388  14389  14390  14391  14392  14393  14394
  14395  14396  14397  14398  14399  14400  14401  14402  14403  14404  14405
  14406  14407  14408  14409  14410  14411  14412  14413  14414  14415  14416
  14417  14418  14419  14420  14421  14422  14423  14424  14425  14426  14427
  14428  14429  14430  14431  14432  14433  14434  14435  14436  14437  14438
  14439  14440  14441  14442  14443  14444  14445  14446  14447  14448  14449
  14450  14451  14452  14453  14454  14455  14456  14457  14458  14459  14460
  14461  14462  14463  14464  14465  14466  14467  14468  14469  14470  14471
  14472  14473  14474  14475  14476  14477  14478  14479  14480  14481  14482
  14483  14484  14485  14486  14487  14488  14489  14490  14491  14492  14493
  14494  14495  14496  14497  14498  14499  14500  14501  14502  14503  14504
  14505  14506  14507  14508  14509  14510  14511  14512  14513  14514  14515
  14516  14517  14518  14519  14520  14521  14522  14523  14524  14525  14526
  14527  14528  14529  14530  14531  14532  14533  14534  14535  14536  14537
  14538  14539  14540  14541  14542  14543  14544  14545  14546  14547  14548
  14549  14550  14551  14552  14553  14554  14555  14556  14557  14558  14559
  14560  14561  14562  14563  14564  14565  14566  14567  14568  14569  14570
  14571  14572  14573  14574  14575  14576  14577  14578  14579  14580  14581
  14582  14583  14584  14585  14586  14587  14588  14589  14590  14591  14592
  14593  14594  14595  14596  14597  14598  14599  14600  14601  14602  14603
  14604  14605  14606  14607  14608  14609  14610  14611  14612  14613  14614
  14615  14616  14617  14618  14619  14620  14621  14622  14623  14624  14625
  14626  14627  14628  14629  14630  14631  14632  14633  14634  14635  14636
  14637  14638  14639  14640  14641  14642  14643  14644  14645  14646  14647
  14648  14649  14650  14651  14652  14653  14654  14655  14656  14657  14658
  14659  14660  14661  14662  14663  14664  14665  14666  14667  14668  14669
  14670  14671  14672  14673  14674  14675  14676  14677  14678  14679  14680
  14681  14682  14683  14684  14685  14686  14687  14688  14689  14690  14691
  14692  14693  14694  14695  14696  14697  14698  14699  14700  14701  14702
  14703  14704  14705  14706  14707  14708  14709  14710  14711  14712  14713
  14714  14715  14716  14717  14718  14719  14720  14721  14722  14723  14724
  14725  14726  14727  14728  14729  14730  14731  14732  14733  14734  14735
  14736  14737  14738  14739  14740  14741  14742  14743  14744  14745  14746
  14747  14748  14749  14750  14751  14752  14753  14754  14755  14756  14757
  14758  14759  14760  14761  14762  14763  14764  14765  14766  14767  14768
  14769  14770  14771  14772  14773  14774  14775  14776  14777  14778  14779
  14780  14781  14782  14783  14784  14785  14786  14787  14788  14789  14790
  14791  14792  14793  14794  14795  14796  14797  14798  14799  14800  14801
  14802  14803  14804  14805  14806  14807  14808  14809  14810  14811  14812
  14813  14814  14815  14816  14817  14818  14819  14820  14821  14822  14823
  14824  14825  14826  14827  14828  14829  14830  14831  14832  14833  14834
  14835  14836  14837  14838  14839  14840  14841  14842  14843  14844  14845
  14846  14847  14848  14849  14850  14851  14852  14853  14854  14855  14856
  14857  14858  14859  14860  14861  14862  14863  14864  14865  14866  14867
  14868  14869  14870  14871  14872  14873  14874  14875  14876  14877  14878
  14879  14880  14881  14882  14883  14884  14885  14886  14887  14888  14889
  14890  14891  14892  14893  14894  14895  14896  14897  14898  14899  14900
  14901  14902  14903  14904  14905  14906  14907  14908  14909  14910  14911
  14912  14913  14914  14915  14916  14917  14918  14919  14920  14921  14922
  14923  14924  14925  14926  14927  14928  14929  14930  14931  14932  14933
  14934  14935  14936  14937  14938  14939  14940  14941  14942  14943  14944
  14945  14946  14947  14948  14949  14950  14951  14952  14953  14954  14955
  14956  14957  14958  14959  14960  14961  14962  14963  14964  14965  14966
  14967  14968  14969  14970  14971  14972  14973  14974  14975  14976  14977
  14978  14979  14980  14981  14982  14983  14984  14985  14986  14987  14988
  14989  14990  14991  14992  14993  14994  14995  14996  14997  14998  14999
  15000  15001  15002  15003  15004  15005  15006  15007  15008  15009  15010
  15011  15012  15013  15014  15015  15016  15017  15018  15019  15020  15021
  15022  15023  15024  15025  15026  15027  15028  15029  15030  15031  15032
  15033  15034  15035  15036  15037  15038  15039  15040  15041  15042  15043
  15044  15045  15046  15047  15048  15049  15050  15051  15052  15053  15054
  15055  15056  15057  15058  15059  15060  15061  15062  15063  15064  15065
  15066  15067  15068  15069  15070  15071  15072  15073  15074  15075  15076
  15077  15078  15079  15080  15081  15082  15083  15084  15085  15086  15087
  15088  15089  15090  15091  15092  15093  15094  15095  15096  15097  15098
  15099  15100  15101  15102  15103  15104  15105  15106  15107  15108  15109
  15110  15111  15112  15113  15114  15115  15116  15117  15118  15119  15120
  15121  15122  15123  15124  15125  15126  15127  15128  15129  15130  15131
  15132  15133  15134  15135  15136  15137  15138  15139  15140  15141  15142
  15143  15144  15145  15146  15147  15148  15149  15150  15151  15152  15153
  15154  15155  15156  15157  15158  15159  15160  15161  15162  15163  15164
  15165  15166  15167  15168  15169  15170  15171  15172  15173  15174  15175
  15176  15177  15178  15179  15180  15181  15182  15183  15184  15185  15186
  15187  15188  15189  15190  15191  15192  15193  15194  15195  15196  15197
  15198  15199  15200  15201  15202  15203  15204  15205  15206  15207  15208
  15209  15210  15211  15212  15213  15214  15215  15216  15217  15218  15219
  15220  15221  15222  15223  15224  15225  15226  15227  15228  15229  15230
  15231  15232  15233  15234  15235  15236  15237  15238  15239  15240  15241
  15242  15243  15244  15245  15246  15247  15248  15249  15250  15251  15252
  15253  15254  15255  15256  15257  15258  15259  15260  15261  15262  15263
  15264  15265  15266  15267  15268  15269  15270  15271  15272  15273  15274
  15275  15276  15277  15278  15279  15280  15281  15282  15283  15284  15285
  15286  15287  15288  15289  15290  15291  15292  15293  15294  15295  15296
  15297  15298  15299  15300  15301  15302  15303  15304  15305  15306  15307
  15308  15309  15310  15311  15312  15313  15314  15315  15316  15317  15318
  15319  15320  15321  15322  15323  15324  15325  15326  15327  15328  15329
  15330  15331  15332  15333  15334  15335  15336  15337  15338  15339  15340
  15341  15342  15343  15344  15345  15346  15347  15348  15349  15350  15351
  15352  15353  15354  15355  15356  15357  15358  15359  15360  15361  15362
  15363  15364  15365  15366  15367  15368  15369  15370  15371  15372  15373
  15374  15375  15376  15377  15378  15379  15380  15381  15382  15383  15384
  15385  15386  15387  15388  15389  15390  15391  15392  15393  15394  15395
  15396  15397  15398  15399  15400  15401  15402  15403  15404  15405  15406
  15407  15408  15409  15410  15411  15412  15413  15414  15415  15416  15417
  15418  15419  15420  15421  15422  15423  15424  15425  15426  15427  15428
  15429  15430  15431  15432  15433  15434  15435  15436  15437  15438  15439
  15440  15441  15442  15443  15444  15445  15446  15447  15448  15449  15450
  15451  15452  15453  15454  15455  15456  15457  15458  15459  15460  15461
  15462  15463  15464  15465  15466  15467  15468  15469  15470  15471  15472
  15473  15474  15475  15476  15477  15478  15479  15480  15481  15482  15483
  15484  15485  15486  15487  15488  15489  15490  15491  15492  15493  15494
  15495  15496  15497  15498  15499  15500  15501  15502  15503  15504  15505
  15506  15507  15508  15509  15510  15511  15512  15513  15514  15515  15516
  15517  15518  15519  15520  15521  15522  15523  15524  15525  15526  15527
  15528  15529  15530  15531  15532  15533  15534  15535  15536  15537  15538
  15539  15540  15541  15542  15543  15544  15545  15546  15547  15548  15549
  15550  15551  15552  15553  15554  15555  15556  15557  15558  15559  15560
  15561  15562  15563  15564  15565  15566  15567  15568  15569  15570  15571
  15572  15573  15574  15575  15576  15577  15578  15579  15580  15581  15582
  15583  15584  15585  15586  15587  15588  15589  15590  15591  15592  15593
  15594  15595  15596  15597  15598  15599  15600  15601  15602  15603  15604
  15605  15606  15607  15608  15609  15610  15611  15612  15613  15614  15615
  15616  15617  15618  15619  15620  15621  15622  15623  15624  15625  15626
  15627  15628  15629  15630  15631  15632  15633  15634  15635  15636  15637
  15638  15639  15640  15641  15642  15643  15644  15645  15646  15647  15648
  15649  15650  15651  15652  15653  15654  15655  15656  15657  15658  15659
  15660  15661  15662  15663  15664  15665  15666  15667  15668  15669  15670
  15671  15672  15673  15674  15675  15676  15677  15678  15679  15680  15681
  15682  15683  15684  15685  15686  15687  15688  15689  15690  15691  15692
  15693  15694  15695  15696  15697  15698  15699  15700  15701  15702  15703
  15704  15705  15706  15707  15708  15709  15710  15711  15712  15713  15714
  15715  15716  15717  15718  15719  15720  15721  15722  15723  15724  15725
  15726  15727  15728  15729  15730  15731  15732  15733  15734  15735  15736
  15737  15738  15739  15740  15741  15742  15743  15744  15745  15746  15747
  15748  15749  15750  15751  15752  15753  15754  15755  15756  15757  15758
  15759  15760  15761  15762  15763  15764  15765  15766  15767  15768  15769
  15770  15771  15772  15773  15774  15775  15776  15777  15778  15779  15780
  15781  15782  15783  15784  15785  15786  15787  15788  15789  15790  15791
  15792  15793  15794  15795  15796  15797  15798  15799  15800  15801  15802
  15803  15804  15805  15806  15807  15808  15809  15810  15811  15812  15813
  15814  15815  15816  15817  15818  15819  15820  15821  15822  15823  15824
  15825  15826  15827  15828  15829  15830  15831  15832  15833  15834  15835
  15836  15837  15838  15839  15840  15841  15842  15843  15844  15845  15846
  15847  15848  15849  15850  15851  15852  15853  15854  15855  15856  15857
  15858  15859  15860  15861  15862  15863  15864  15865  15866  15867  15868
  15869  15870  15871  15872  15873  15874  15875  15876  15877  15878  15879
  15880  15881  15882  15883  15884  15885  15886  15887  15888  15889  15890
  15891  15892  15893  15894  15895  15896  15897  15898  15899  15900  15901
  15902  15903  15904  15905  15906  15907  15908  15909  15910  15911  15912
  15913  15914  15915  15916  15917  15918  15919  15920  15921  15922  15923
  15924  15925  15926  15927  15928  15929  15930  15931  15932  15933  15934
  15935  15936  15937  15938  15939  15940  15941  15942  15943  15944  15945
  15946  15947  15948  15949  15950  15951  15952  15953  15954  15955  15956
  15957  15958  15959  15960  15961  15962  15963  15964  15965  15966  15967
  15968  15969  15970  15971  15972  15973  15974  15975  15976  15977  15978
  15979  15980  15981  15982  15983  15984  15985  15986  15987  15988  15989
  15990  15991  15992  15993  15994  15995  15996  15997  16001  16002  16003
  16004  16005  16006  16007  16008  16009  16010  16011  16012  16013  16014
  16015  16016  16017  16018  16019  16020  16021  16022  16023  16024  16025
  16026  16030  16032  16033  16034  16035  16040  16041  16042  16043  16044
  16045  16046  16047  16048  16049  16050  16051  16052  16053  16054  16055
  16056  16057  16058  16059  16060  16061  16062  16063  16064  16065  16066
  16067  16068  16069  16070  16071  16072  16073  16074  16075  16076  16077
  16078  16079  16080  16081  16082  16083  16084  16085  16086  16087  16088
  16089  16090  16091  16092  16093  16094  16095  16096  16097  16098  16099
  16100  16101  16102  16103  16104  16105  16106  16107  16108  16109  16110
  16111  16112  16113  16114  16115  16116  16117  16118  16119  16120  16121
  16122  16123  16124  16125  16126  16127  16128  16129  16130  16131  16132
  16133  16134  16135  16136  16137  16138  16139  16140  16141  16142  16143
  16144  16145  16146  16147  16148  16149  16150  16151  16152  16153  16154
  16155  16156  16157  16158  16159  16160  16161  16162  16163  16164  16165
  16166  16167  16168  16169  16170  16171  16172  16173  16174  16175  16176
  16177  16178  16179  16180  16181  16182  16183  16184  16185  16186  16187
  16188  16189  16190  16191  16192  16193  16194  16195  16196  16197  16198
  16199  16200  16201  16202  16203  16204  16205  16206  16207  16208  16209
  16210  16211  16212  16213  16214  16215  16216  16217  16218  16219  16220
  16221  16222  16223  16224  16225  16226  16227  16228  16229  16230  16231
  16232  16233  16234  16235  16236  16237  16238  16239  16240  16241  16242
  16243  16244  16245  16246  16247  16248  16249  16250  16251  16252  16253
  16254  16255  16256  16257  16258  16259  16260  16261  16262  16263  16264
  16265  16266  16267  16268  16269  16270  16271  16272  16273  16274  16275
  16276  16277  16278  16279  16280  16281  16282  16283  16284  16285  16286
  16287  16288  16289  16290  16291  16292  16293  16294  16301  16302  16303
  16304  16305  16306  16307  16308  16309  16310  16311  16312  16313  16314
  16315  16316  16317  16318  16319  16320  16321  16322  16323  16324  16325
  16326  16327  16328  16329  16330  16331  16332  16333  16334  16335  16336
  16337  16338  16339  16340  16341  16342  16343  16344  16345  16346  16347
  16348  16349  16350  16351  16352  16353  16354  16355  16356  16357  16358
  16359  16360  16361  16362  16363  16364  16365  16366  16367  16368  16369
  16370  16371  16372  16373  16374  16375  16376  16377  16378  16379  16380
  16381  16382  16383  16384  16385  16386  16387  16388  16389  16390  16391
  16392  16393  16394  16395  16396  16397  16398  16399  16400  16401  16402
  16403  16404  16405  16406  16408  16409  16410  16411  16412  16413  16414
  16415  16416  16417  16418  16419  16420  16421  16422  16423  16424  16425
  16426  16427  16428  16429  16430  16431  16444  16445  16447  16449  16450
  16451  16452  16453  16454  16455  16456  16457  16458  16459  16460  16461
  16462  16463  16464  16465  16466  16467  16468  16469  16470  16471  16472
  16473  16474  16475  16476  16477  16478  16479  16480  16481  16482  16483
  16484  16485  16488  16512  16513  16514  16515  16516  16517  16518  16519
  16520  16521  16522  16523  16524  16525  16526  16527  16528  16529  16530
  16531  16532  16533  16534  16535  16536  16537  16538  16539  16540  16541
  16542  16543  16544  16545  16546  16547  16548  16549  16567  16568  16569
  16570  16571  16572  16573  16574  16575  16577  16578  16579  16580  16581
  16582  16583  16584  16585  16586  16587  16588  16589  16590  16591  16592
  16609  16610  16611  16612  16613  16614  16616  16617  16618  16619  16620
  16621  16622  16623  16624  16625  16626  16627  16628  16629  16630  16631
  16632  16633  16634  16635  16636  16637  16638  16639  16640  16641  16642
  16643  16644  16645  16646  16647  16649  16650  16651  16652  16653  16654
  16655  16656  16657  16658  16659  16660  16661  16662  16663  16664  16665
  16666  16667  16668  16669  16670  16671  16697  16698  16699  16700  16701
  16702  16703  16704  16705  16706  16707  16708  16709  16710  16711  16712
  16713  16714  16715  16716  16717  16718  16719  16720  16721  16722  16723
  16724  16725  16726  16727  16728  16729  16730  16731  16732  16733  16734
  16735  16736  16737  16738  16739  16740  16741  16742  16743  16744  16745
  16746  16747  16748  16749  16750  16751  16752  16753  16754  16755  16756
  16761  16762  16763  16765  16767  16773  16778  16779  16780  16781  16782
  16783  16784  16785  16786  16787  16788  16789  16790  16791  16792  16793
  16794  16795  16796  16797  16798  16799  16800  16801  16802  16803  16804
  16822  16823  16824  16825  16826  16827  16828  16829  16830  16831  16832
  16833  16834  16835  16836  16837  16838  16839  16840  16841  16842  16843
  16844  16845  16846  16847  16848  16849  16850  16851  16852  16853  16854
  16855  16856  16857  16858  16859  16860  16861  16862  16863  16872  16873
  16874  16875  16876  16877  16878  16879  16880  16881  16882  16883  16884
  16885  16886  16887  16888  16889  16890  16891  16892  16893  16894  16895
  16896  16897  16898  16899  16900  16901  16902  16903  16904  16905  16906
  16907  16908  16909  16910  16911  16933  16934  16935  16936  16937  16938
  16939  16940  16941  16942  16943  16944  16945  16946  16947  16948  16949
  16950  16951  16952  16953  16954  16955  16956  16957  16958  16959  16960
  16975  16976  16977  16978  16979  16980  16981  16982  16983  16984  16985
  16986  16987  16988  16989  16990  16991  16992  16993  16994  16995  16996
  16997  16998  16999  17000  17001  17002  17003  17004  17005  17006  17007
  17008  17009  17010  17011  17012  17013  17014  17015  17016  17017  17018
  17019  17020  17021  17022  17023  17024  17025  17026  17027  17028  17029
  17033  17034  17035  17036  17037  17038  17039  17040  17041  17042  17043
  17044  17045  17046  17047  17048  17049  17050  17051  17052  17053  17054
  17055  17056  17057  17058  17059  17060  17061  17062  17063  17064  17065
  17066  17067  17068  17069  17070  17071  17072  17073  17074  17075  17076
  17077  17078  17079  17080  17081  17082  17083  17084  17085  17086  17087
  17088  17089  17090  17091  17092  17093  17094  17095  17096  17097  17098
  17099  17100  17101  17102  17103  17104  17105  17106  17107  17108  17109
  17110  17111  17112  17113  17114  17115  17116  17117  17118  17119  17120
  17121  17122  17123  17124  17125  17126  17127  17128  17129  17130  17131
  17132  17133  17134  17135  17136  17137  17138  17139  17140  17141  17142
  17143  17144  17145  17146  17147  17148  17149  17150  17151  17152  17153
  17154  17155  17156  17157  17158  17159  17160  17161  17162  17163  17164
  17165  17166  17167  17168  17169  17170  17171  17172  17173  17174  17175
  17176  17177  17178  17179  17180  17181  17182  17183  17184  17185  17186
  17187  17188  17189  17190  17191  17192  17193  17194  17195  17196  17197
  17198  17199  17200  17201  17202  17203  17204  17205  17206  17207  17208
  17209  17210  17211  17212  17213  17214  17215  17216  17217  17218  17219
  17220  17221  17222  17223  17224  17225  17226  17227  17228  17229  17230
  17231  17232  17233  17234  17235  17236  17237  17238  17239  17240  17241
  17242  17243  17244  17245  17246  17247  17248  17249  17250  17251  17252
  17253  17254  17255  17256  17257  17258  17259  17260  17261  17262  17263
  17264  17265  17266  17267  17268  17269  17270  17271  17272  17273  17274
  17275  17276  17277  17278  17279  17280  17281  17282  17283  17284  17285
  17286  17287  17288  17289  17290  17291  17292  17293  17294  17295  17296
  17297  17298  17299  17300  17301  17302  17303  17304  17305  17306  17307
  17308  17309  17310  17311  17312  17313  17314  17315  17316  17317  17318
  17319  17320  17321  17322  17323  17324  17325  17326  17327  17328  17329
  17330  17331  17332  17333  17334  17335  17336  17337  17338  17339  17340
  17341  17342  17343  17344  17345  17346  17347  17348  17349  17350  17351
  17352  17353  17354  17355  17356  17357  17358  17359  17360  17361  17362
  17363  17364  17365  17366  17367  17368  17369  17370  17371  17372  17373
  17374  17375  17376  17377  17378  17379  17380  17381  17382  17383  17384
  17385  17386  17387  17388  17389  17390  17391  17392  17393  17394  17395
  17396  17397  17398  17399  17400  17401  17402  17403  17404  17405  17406
  17407  17408  17409  17410  17411  17412  17413  17414  17415  17416  17417
  17418  17419  17420  17421  17422  17423  17424  17425  17426  17427  17428
  17429  17430  17431  17432  17433  17434  17435  17436  17437  17438  17439
  17440  17441  17442  17443  17444  17445  17446  17447  17448  17449  17450
  17451  17452  17453  17454  17455  17456  17457  17458  17459  17460  17461
  17462  17463  17464  17465  17466  17467  17468  17469  17470  17471  17472
  17473  17474  17475  17476  17477  17478  17479  17480  17481  17482  17483
  17484  17485  17486  17487  17488  17489  17490  17491  17492  17493  17494
  17495  17496  17497  17498  17499  17500  17501  17502  17503  17504  17505
  17506  17507  17508  17509  17510  17511  17512  17513  17514  17515  17516
  17517  17518  17519  17520  17521  17522  17523  17524  17525  17526  17527
  17528  17529  17530  17531  17532  17533  17534  17535  17536  17538  17539
  17540  17541  17542  17543  17544  17545  17546  17547  17548  17549  17550
  17551  17552  17553  17554  17555  17559  17560  17561  17562  17563  17564
  17565  17566  17567  17568  17569  17574  17579  17580  17582  17604  17605
  17606  17607  17608  17609  17610  17611  17612  17613  17614  17615  17616
  17617  17618  17619  17620  17621  17622  17623  17624  17630  17631  17632
  17633  17634  17635  17636  17637  17638  17639  17640  17641  17642  17643
  17644  17645  17646  17647  17648  17649  17650  17651  17652  17653  17654
  17655  17656  17657  17658  17659  17660  17661  17662  17663  17664  17665
  17666  17667  17668  17669  17670  17671  17672  17673  17674  17675  17676
  17677  17678  17679  17680  17681  17682  17683  17684  17685  17686  17687
  17688  17690  17691  17692  17693  17694  17695  17696  17697  17698  17699
  17700  17701  17702  17703  17704  17705  17706  17707  17708  17709  17710
  17711  17712  17713  17714  17715  17716  17717  17718  17719  17720  17721
  17722  17723  17724  17725  17726  17727  17728  17729  17730  17731  17732
  17733  17734  17735  17736  17737  17738  17739  17740  17741  17742  17743
  17744  17745  17746  17747  17748  17749  17750  17751  17752  17753  17754
  17755  17756  17757  17758  17759  17760  17761  17762  17763  17764  17765
  17766  17767  17768  17769  17770  17771  17772  17773  17774  17775  17776
  17777  17778  17779  17780  17781  17782  17783  17784  17785  17786  17787
  17788  17789  17790  17791  17792  17793  17794  17795  17796  17797  17798
  17799  17800  17801  17802  17803  17804  17805  17806  17807  17808  17809
  17810  17811  17812  17813  17814  17815  17816  17817  17818  17819  17820
  17821  17822  17823  17824  17825  17826  17827  17828  17829  17830  17831
  17832  17833  17834  17835  17836  17837  17838  17839  17840  17841  17842
  17843  17844  17845  17846  17847  17848  17849  17850  17851  17852  17853
  17854  17855  17856  17857  17858  17859  17860  17861  17862  17863  17864
  17865  17866  17867  17868  17869  17870  17871  17872  17873  17874  17875
  17876  17877  17878  17879  17880  17881  17882  17883  17889  17890  17891
  17892  17893  17894  17895  17896  17897  17898  17899  17900  17901  17902
  17903  17904  17926  17927  17928  17929  17930  17931  17932  17933  17934
  17935  17936  17937  17938  17939  17940  17941  17942  17943  17944  17945
  17946  17994  17995  17996  17997  17998  17999  18000  18001  18002  18003
  18004  18005  18006  18007  18008  18009  18010  18011  18012  18013  18014
  18015  18016  18017  18018  18019  18020  18021  18022  18023  18024  18025
  18026  18027  18028  18029  18030  18031  18032  18033  18034  18035  18036
  18037  18038  18039  18040  18041  18042  18043  18044  18045  18046  18047
  18048  18049  18050  18051  18052  18053  18054  18055  18056  18078  18079
  18080  18081  18082  18083  18084  18085  18086  18087  18088  18089  18090
  18091  18092  18093  18094  18095  18096  18097  18098  18099  18100  18101
  18102  18103  18104  18105  18106  18107  18108  18109  18110  18111  18112
  18113  18114  18115  18116  18117  18118  18119  18124  18125  18126  18127
  18128  18129  18130  18131  18132  18133  18134  18135  18136  18137  18138
  18139  18140  18141  18142  18143  18144  18145  18146  18147  18148  18149
  18150  18151  18152  18153  18154  18155  18156  18157  18158  18159  18160
  18161  18162  18163  18164  18165  18166  18167  18168  18169  18170  18171
  18172  18173  18174  18175  18176  18177  18178  18179  18180  18181  18182
  18183  18184  18185  18186  18187  18188  18189  18190  18191  18192  18193
  18194  18195  18196  18197  18198  18199  18200  18201  18202  18203  18204
  18205  18206  18207  18208  18209  18210  18211  18212  18213  18214  18215
  18216  18217  18218  18219  18220  18221  18222  18223  18224  18225  18226
  18227  18228  18229  18230  18231  18232  18233  18234  18235  18236  18237
  18238  18239  18240  18241  18242  18243  18244  18245  18246  18247  18248
  18249  18250  18251  18252  18253  18254  18255  18256  18257  18258  18259
  18260  18261  18262  18263  18264  18265  18266  18267  18268  18269  18270
  18271  18272  18273  18274  18275  18276  18277  18278  18279  18280  18281
  18282  18283  18284  18285  18286  18287  18288  18289  18290  18291  18292
  18293  18294  18295  18296  18297  18298  18299  18300  18301  18302  18303
  18304  18305  18306  18307  18308  18309  18310  18311  18312  18313  18314
  18315  18316  18317  18318  18319  18320  18321  18322  18323  18324  18325
  18326  18327  18328  18329  18330  18331  18332  18333  18334  18335  18336
  18337  18338  18339  18340  18341  18342  18343  18344  18345  18346  18347
  18348  18349  18350  18351  18352  18353  18354  18355  18356  18357  18358
  18359  18360  18361  18362  18363  18364  18365  18366  18367  18368  18369
  18370  18371  18372  18373  18374  18375  18376  18377  18378  18379  18380
  18381  18382  18383  18384  18385  18386  18387  18388  18389  18390  18391
  18392  18393  18394  18395  18396  18397  18398  18399  18400  18401  18402
  18403  18404  18405  18406  18407  18408  18409  18410  18411  18412  18413
  18414  18415  18416  18417  18418  18419  18420  18421  18422  18423  18424
  18425  18426  18427  18428  18429  18430  18431  18432  18433  18434  18435
  18436  18437  18438  18439  18440  18441  18442  18443  18444  18445  18446
  18447  18448  18449  18450  18451  18452  18453  18454  18455  18456  18457
  18458  18459  18460  18461  18462  18463  18464  18465  18466  18467  18468
  18469  18470  18471  18472  18473  18474  18475  18476  18477  18478  18479
  18480  18481  18482  18483  18484  18485  18486  18487  18488  18489  18490
  18491  18492  18493  18494  18495  18496  18497  18498  18499  18500  18501
  18502  18503  18504  18505  18506  18507  18508  18509  18510  18511  18512
  18513  18514  18515  18516  18517  18518  18519  18520  18521  18522  18523
  18524  18525  18526  18527  18528  18529  18530  18531  18532  18533  18534
  18535  18536  18537  18538  18539  18540  18541  18542  18543  18544  18545
  18546  18547  18548  18549  18550  18551  18552  18553  18554  18555  18556
  18557  18558  18559  18560  18561  18562  18563  18564  18565  18566  18567
  18568  18569  18570  18571  18572  18573  18574  18575  18576  18577  18578
  18579  18580  18581  18582  18583  18584  18585  18586  18587  18588  18589
  18590  18591  18592  18593  18594  18595  18596  18597  18598  18599  18600
  18601  18602  18603  18604  18605  18606  18607  18608  18609  18610  18611
  18612  18613  18614  18615  18616  18617  18618  18619  18620  18621  18622
  18623  18624  18625  18626  18627  18628  18629  18630  18631  18632  18633
  18634  18635  18636  18637  18638  18639  18640  18641  18642  18643  18644
  18645  18646  18647  18648  18649  18650  18651  18652  18653  18654  18655
  18656  18657  18658  18659  18660  18661  18662  18663  18664  18665  18666
  18667  18668  18669  18670  18671  18672  18673  18674  18675  18676  18677
  18678  18679  18680  18681  18682  18683  18684  18685  18686  18687  18688
  18689  18690  18691  18692  18693  18694  18695  18696  18697  18698  18699
  18700  18701  18702  18703  18704  18705  18706  18707  18708  18709  18710
  18711  18712  18713  18714  18715  18716  18717  18718  18719  18720  18721
  18722  18723  18724  18725  18726  18727  18728  18729  18730  18731  18732
  18733  18734  18735  18736  18737  18738  18739  18740  18741  18742  18743
  18744  18745  18746  18747  18748  18749  18750  18751  18752  18753  18754
  18755  18756  18757  18758  18759  18760  18761  18762  18763  18764  18765
  18766  18767  18768  18769  18770  18771  18772  18773  18774  18775  18776
  18777  18778  18779  18780  18781  18782  18783  18784  18785  18786  18787
  18788  18789  18790  18791  18792  18793  18794  18795  18796  18797  18798
  18799  18800  18801  18802  18803  18804  18805  18806  18807  18808  18809
  18810  18811  18812  18813  18814  18815  18816  18817  18818  18819  18820
  18821  18822  18823  18824  18825  18826  18827  18828  18829  18830  18831
  18832  18833  18834  18835  18836  18837  18838  18839  18840  18841  18842
  18843  18844  18845  18846  18847  18848  18849  18850  18851  18852  18853
  18854  18855  18856  18857  18858  18859  18860  18861  18862  18863  18864
  18865  18866  18867  18868  18869  18870  18871  18872  18873  18874  18875
  18876  18877  18878  18879  18880  18881  18882  18883  18884  18885  18886
  18887  18888  18889  18890  18891  18892  18893  18894  18895  18896  18897
  18898  18899  18900  18901  18902  18903  18904  18905  18906  18907  18908
  18909  18910  18911  18912  18913  18914  18915  18916  18917  18918  18919
  18920  18921  18922  18923  18924  18925  18926  18927  18928  18929  18930
  18931  18932  18933  18934  18935  18936  18937  18938  18939  18940  18941
  18942  18943  18944  18945  18946  18947  18948  18949  18950  18951  18952
  18953  18954  18955  18956  18957  18958  18959  18960  18961  18962  18963
  18964  18965  18966  18967  18968  18969  18970  18971  18972  18973  18974
  18975  18976  18977  18978  18979  18980  18981  18982  18983  18984  18985
  18986  18987  18988  18989  18990  18991  18992  18993  18994  18995  18996
  18997  18998  18999  19000  19001  19002  19003  19004  19005  19006  19007
  19008  19009  19010  19011  19012  19013  19014  19015  19016  19017  19018
  19019  19020  19021  19022  19023  19024  19025  19026  19027  19028  19029
  19030  19031  19032  19033  19034  19035  19036  19037  19038  19039  19040
  19041  19042  19043  19044  19045  19046  19047  19048  19049  19050  19051
  19052  19053  19054  19055  19056  19057  19058  19059  19060  19061  19062
  19063  19064  19065  19066  19067  19068  19069  19070  19071  19072  19073
  19074  19075  19076  19077  19078  19079  19080  19081  19082  19083  19084
  19085  19086  19087  19088  19089  19090  19091  19092  19093  19094  19095
  19096  19097  19098  19099  19100  19101  19102  19103  19104  19105  19106
  19107  19108  19109  19110  19111  19112  19113  19114  19115  19116  19117
  19118  19119  19120  19121  19122  19123  19124  19125  19126  19127  19128
  19129  19130  19131  19132  19133  19134  19135  19136  19137  19138  19139
  19140  19141  19142  19143  19144  19145  19146  19147  19148  19149  19150
  19151  19152  19153  19154  19155  19156  19157  19158  19159  19160  19161
  19162  19163  19164  19165  19166  19167  19168  19169  19170  19171  19172
  19173  19174  19175  19176  19177  19178  19179  19180  19181  19182  19183
  19184  19185  19186  19187  19188  19189  19190  19191  19192  19193  19194
  19195  19196  19197  19198  19199  19200  19201  19202  19203  19204  19205
  19206  19207  19208  19209  19210  19211  19212  19213  19214  19215  19216
  19217  19218  19219  19220  19221  19222  19223  19224  19225  19226  19227
  19228  19229  19230  19231  19232  19233  19234  19235  19236  19237  19238
  19239  19240  19241  19242  19243  19244  19245  19246  19247  19248  19249
  19250  19251  19252  19253  19254  19255  19256  19257  19258  19259  19260
  19261  19262  19263  19264  19265  19266  19267  19268  19269  19270  19271
  19272  19273  19274  19275  19276  19277  19278  19279  19280  19281  19282
  19283  19284  19285  19286  19287  19288  19289  19290  19291  19292  19293
  19294  19295  19296  19297  19298  19299  19300  19301  19302  19303  19304
  19305  19306  19307  19308  19309  19310  19311  19312  19313  19314  19315
  19316  19317  19318  19319  19320  19321  19322  19323  19324  19325  19326
  19327  19328  19329  19330  19331  19332  19333  19334  19335  19336  19337
  19338  19339  19340  19341  19342  19343  19344  19345  19346  19347  19348
  19349  19350  19351  19352  19353  19354  19355  19356  19357  19358  19359
  19360  19361  19362  19363  19364  19365  19366  19367  19368  19369  19370
  19371  19372  19373  19374  19375  19376  19377  19378  19379  19380  19381
  19382  19383  19384  19385  19386  19387  19388  19389  19390  19391  19392
  19393  19394  19395  19396  19397  19398  19399  19400  19401  19402  19403
  19404  19405  19406  19407  19408  19409  19410  19411  19412  19413  19414
  19415  19416  19417  19418  19419  19420  19421  19422  19423  19424  19425
  19426  19427  19428  19429  19430  19431  19432  19433  19434  19435  19436
  19437  19438  19439  19440  19441  19442  19443  19444  19445  19446  19447
  19448  19449  19450  19451  19452  19453  19454  19455  19456  19457  19458
  19459  19460  19461  19462  19463  19464  19465  19466  19467  19468  19469
  19470  19471  19472  19473  19474  19475  19476  19477  19478  19479  19480
  19481  19482  19483  19484  19485  19486  19487  19488  19489  19490  19491
  19492  19493  19494  19495  19496  19497  19498  19499  19500  19501  19502
  19503  19504  19505  19506  19507  19508  19509  19510  19511  19512  19513
  19514  19515  19516  19517  19518  19519  19520  19521  19522  19523  19524
  19525  19526  19527  19528  19529  19530  19531  19532  19533  19534  19535
  19536  19537  19538  19539  19540  19541  19542  19543  19544  19545  19546
  19547  19548  19549  19550  19551  19552  19553  19554  19555  19556  19557
  19558  19559  19560  19561  19562  19563  19564  19565  19566  19567  19568
  19569  19570  19571  19572  19573  19574  19575  19576  19577  19578  19579
  19580  19581  19582  19583  19584  19585  19586  19587  19588  19589  19590
  19591  19592  19593  19594  19595  19596  19597  19598  19599  19600  19601
  19602  19603  19604  19605  19606  19607  19608  19609  19610  19611  19612
  19613  19614  19615  19616  19617  19618  19619  19620  19621  19622  19623
  19624  19625  19626  19627  19628  19629  19630  19631  19632  19633  19634
  19635  19636  19637  19638  19639  19640  19641  19642  19643  19644  19645
  19646  19647  19648  19649  19650  19651  19652  19653  19654  19655  19656
  19657  19658  19659  19660  19661  19662  19663  19664  19665  19666  19667
  19668  19669  19670  19671  19672  19673  19674  19675  19676  19677  19678
  19679  19680  19681  19682  19683  19684  19685  19686  19687  19688  19689
  19690  19691  19692  19693  19694  19695  19696  19697  19698  19699  19700
  19701  19702  19703  19704  19705  19706  19707  19708  19709  19710  19711
  19712  19713  19714  19715  19716  19717  19718  19719  19720  19721  19722
  19723  19724  19725  19726  19727  19728  19729  19730  19731  19732  19733
  19734  19735  19736  19737  19738  19739  19740  19741  19742  19743  19744
  19745  19746  19747  19748  19749  19750  19751  19752  19754  19755  19756
  19757  19764  19765  19766  19767  19768  19769  19770  19771  19772  19773
  19774  19775  19776  19777  19778  19779  19780  19781  19782  19783  19784
  19785  19786  19787  19788  19789  19790  19791  19792  19793  19794  19795
  19796  19797  19798  19799  19800  19801  19802  19803  19804  19805  19806
  19807  19808  19809  19810  19811  19812  19813  19814  19815  19816  19817
  19818  19819  19820  19821  19822  19823  19824  19825  19826  19827  19828
  19829  19830  19831  19832  19833  19834  19835  19836  19837  19838  19839
  19840  19841  19842  19843  19844  19845  19846  19847  19848  19849  19850
  19851  19852  19853  19854  19855  19856  19857  19858  19859  19860  19861
  19862  19863  19864  19865  19866  19867  19868  19869  19870  19871  19872
  19873  19874  19875  19876  19877  19878  19879  19880  19881  19882  19883
  19884  19885  19887  19902  19903  19904  19905  19906  19907  19908  19909
  19910  19911  19912  19913  19914  19915  19916  19917  19918  19919  19920
  19921  19922  19923  19924  19925  19926  19927  19928  19929  19930  19931
  19932  19933  19934  19935  19936  19937  19938  19939  19940  19941  19942
  19943  19944  19945  19946  19947  19948  19949  19950  19951  19953  19954
  19955  19956  19957  19958  19959  19960  19961  19962  19963  19964  19965
  19966  19967  19968  19969  19970  19971  19972  19973  19974  19975  19976
  19977  19978  19979  19980  19981  19982  19983  19984  19985  19986  19987
  19988  19989  19990  19991  19992  19993  19994  19995  19996  19997  19998
  19999  20000  20001  20003  20004  20005  20006  20007  20008  20009  20010
  20011  20012  20013  20014  20015  20017  20018  20019  20020  20021  20022
  20023  20024  20025  20026  20027  20028  20029  20030  20031  20032  20033
  20034  20035  20036  20038  20041  20042  20043  20044  20045  20046  20047
  20048  20049  20050  20051  20090  20091  20092  20093  20094  20095  20096
  20097  20098  20099  20100  20101  20102  20103  20104  20105  20106  20107
  20108  20109  20110  20111  20112  20113  20114  20115  20116  20117  20118
  20119  20120  20121  20122  20123  20124  20125  20126  20127  20128  20129
  20130  20131  20132  20133  20134  20135  20136  20137  20138  20139  20140
  20141  20142  20143  20144  20145  20146  20147  20148  20149  20150  20151
  20152  20153  20154  20155  20156  20157  20158  20159  20160  20161  20162
  20163  20164  20165  20166  20167  20168  20169  20170  20171  20172  20173
  20174  20175  20176  20177  20199  20200  20201  20202  20203  20204  20205
  20206  20207  20208  20209  20210  20211  20212  20213  20214  20215  20237
  20238  20239  20240  20241  20242  20243  20244  20245  20246  20247  20248
  20249  20250  20251  20252  20253  20254  20255  20256  22398  22399  22400
  22401  22402  22403  22404  22405  22406  22407  22408  22409  22410  22411
  22412  22413  22414  22415  22416  22417  22418  22419  22420  22421  22422
  22423  22424  22425  22426  22427  22428  22429  22430  22431  22432  22433
  22434  22435  22436  22437  22438  22439  22440  22441  22442  22443  22444
  22445  22446  22447  22448  22449  22450  22451  22452  22453  22454  22455
  22456  22457  22458  22459  22460  22461  22462  22463  22464  22465  22466
  22467  22468  22469  22470  22471  22472  22473  22474  22475  22476  22477
  22478  22479  22480  22481  22482  22483  22484  22485  22486  22487  22488
  22489  22490  22491  22492  22493  22494  22495  22496  22497  22498  22499
  22500  22501  22502  22503  22504  22505  22506  22507  22508  22509  22510
  22511  22512  22513  22514  22515  22516  22517  22518  22519  22520  22521
  22522  22523  22524  22525  22526  22527  22528  22529  22530  22531  22532
  22533  22534  22535  22536  22537  22538  22539  22540  22541  22542  22543
  22544  22545  22546  22547  22548  22549  22550  22551  22552  22553  22554
  22555  22556  22557  22558  22559  22560  22561  22562  22563  22564  22565
  22566  22567  22568  22569  22570  22571  22572  22573  22574  22575  22576
  22577  22578  22579  22580  22581  22582  22583  22584  22585  22586  22587
  22588  22589  22590  22591  22592  22593  22594  22595  22596  22597  22598
  22599  22600  22601  22602  22603  22604  22605  22606  22607  22608  22609
  22610  22611  22612  22613  22614  22615  22616  22617  22618  22619  22620
  22621  22622  22623  22624  22625  22626  22627  22628  22629  22630  22631
  22632  22633  22634  22635  22636  22637  22638  22639  22640  22641  22642
  22643  22644  22645  22646  22647  22648  22649  22650  22651  22652  22653
  22654  22655  22656  22657  22658  22659  22660  22661  22662  22663  22664
  22665  22666  22667  22668  22669  22670  22671  22672  22673  22674  22675
  22676  22677  22678  22679  22680  22681  22682  22683  22684  22685  22686
  22687  22688  22689  22690  22691  22692  22693  22694  22695  22696  22697
  22698  22699  22700  22701  22702  22703  22704  22705  22706  22707  22708
  22709  22710  22711  22712  22713  22714  22715  22716  22717  22718  22719
  22720  22721  22722  22723  22724  22725  22726  22727  22728  22729  22730
  22731  22732  22733  22734  22735  22736  22737  22738  22739  22740  22741
  22742  22743  22744  22745  22746  22747  22748  22749  22750  22751  22752
  22753  22754  22755  22756  22757  22758  22759  22760  22761  22762  22763
  22764  22765  22766  22767  22768  22769  22770  22771  22772  22773  22774
  22775  22776  22777  22778  22779  22780  22781  22782  22783  22784  22785
  22786  22787  22788  22789  22790  22791  22792  22793  22794  22795  22796
  22797  22798  22799  22800  22801  22802  22803  22804  22805  22806  22807
  22808  22809  22810  22811  22812  22813  22814  22815  22816  22817  22818
  22819  22820  22821  22822  22823  22824  22825  22826  22827  22828  22829
  22830  22831  22832  22833  22834  22835  22836  22837  22838  22839  22840
  22841  22842  22843  22844  22845  22846  22847  22848  22849  22850  22851
  22852  22853  22854  22855  22856  22857  22858  22859  22860  22861  22862
  22863  22864  22865  22866  22867  22868  22869  22870  22871  22872  22873
  22874  22875  22876  22877  22878  22879  22880  22881  22882  22883  22884
  22885  22886  22887  22888  22889  22890  22891  22892  22893  22894  22895
  22896  22897  22898  22899  22900  22901  22902  22903  22904  22905  22906
  22907  22908  22909  22910  22911  22912  22913  22914  22915  22916  22917
  22918  22919  22920  22921  22922  22923  22924  22925  22926  22927  22928
  22929  22930  22931  22932  22933  22934  22935  22936  22937  22938  22939
  22940  22941  22942  22943  22944  22945  22946  22947  22948  22949  22950
  22951  22952  22953  22954  22955  22956  22957  22958  22959  22960  22961
  22962  22963  22964  22965  22966  22967  22968  22969  22970  22971  22972
  22973  22974  22975  22976  22977  22978  22979  22980  22981  22982  22983
  22984  22985  22986  22987  22988  22989  22990  22991  22992  22993  22994
  22995  22996  22997  22998  22999  23000  23001  23002  23003  23004  23005
  23006  23007  23008  23009  23010  23011  23012  23013  23014  23015  23016
  23017  23018  23019  23020  23021  23022  23023  23024  23025  23026  23027
  23028  23029  23030  23031  23032  23033  23034  23035  23036  23037  23038
  23039  23040  23041  23042  23043  23044  23045  23046  23047  23048  23049
  23050  23051  23052  23053  23054  23055  23056  23057  23058  23059  23060
  23061  23062  23063  23064  23065  23066  23067  23068  23069  23070  23071
  23072  23073  23074  23075  23076  23077  23078  23079  23080  23081  23082
  23083  23084  23085  23086  23087  23088  23089  23090  23091  23092  23093
  23094  23095  23096  23097  23098  23099  23100  23101  23102  23103  23104
  23105  23106  23107  23108  23109  23110  23111  23112  23113  23114  23115
  23116  23117  23118  23119  23120  23121  23122  23123  23124  23125  23126
  23127  23128  23129  23130  23131  23132  23133  23134  23135  23136  23137
  23138  23139  23140  23141  23142  23143  23144  23145  23146  23147  23148
  23149  23150  23151  23152  23153  23154  23155  23156  23157  23158  23159
  23160  23161  23162  23163  23164  23165  23166  23167  23168  23169  23170
  23171  23172  23173  23174  23175  23176  23177  23178  23179  23180  23181
  23182  23183  23184  23185  23186  23187  23188  23189  23190  23191  23192
  23193  23194  23195  23196  23197  23198  23199  23200  23201  23202  23203
  23204  23205  23206  23207  23208  23209  23210  23211  23212  23213  23214
  23215  23216  23217  23218  23219  23220  23221  23222  23223  23224  23225
  23226  23227  23228  23229  23230  23231  23232  23233  23234  23235  23236
  23237  23238  23239  23240  23241  23242  23243  23244  23245  23246  23247
  23248  23249  23250  23251  23252  23253  23254  23255  23256  23257  23258
  23259  23260  23261  23262  23263  23264  23265  23266  23267  23268  23269
  23270  23271  23272  23273  23274  23275  23276  23277  23278  23279  23280
  23281  23282  23283  23284  23285  23286  23287  23288  23289  23290  23291
  23292  23293  23294  23295  23296  23297  23298  23299  23300  23301  23302
  23303  23304  23305  23306  23307  23308  23309  23310  23311  23312  23313
  23314  23315  23316  23317  23318  23319  23320  23321  23322  23323  23324
  23325  23326  23327  23328  23329  23330  23331  23332  23333  23334  23335
  23336  23337  23338  23339  23340  23341  23342  23343  23344  23345  23346
  23347  23348  23349  23350  23351  23352  23353  23354  23355  23356  23357
  23358  23359  23360  23361  23362  23363  23364  23365  23366  23367  23368
  23369  23370  23371  23372  23373  23374  23375  23376  23377  23378  23379
  23380  23381  23382  23383  23384  23385  23386  23387  23388  23389  23390
  23391  23392  23393  23394  23395  23396  23397  23398  23399  23400  23401
  23402  23403  23404  23405  23406  23407  23408  23409  23410  23411  23412
  23413  23414  23415  23416  23417  23418  23419  23420  23421  23422  23423
  23424  23425  23426  23427  23428  23429  23430  23431  23432  23433  23434
  23435  23436  23437  23438  23439  23440  23441  23442  23443  23444  23445
  23446  23447  23448  23449  23450  23451  23452  23453  23454  23455  23456
  23457  23458  23459  23460  23461  23462  23463  23464  23465  23466  23467
  23468  23469  23470  23471  23472  23473  23474  23475  23476  23477  23478
  23479  23480  23481  23482  23483  23484  23485  23486  23487  23488  23489
  23490  23491  23492  23493  23494  23495  23496  23497  23498  23499  23500
  23501  23502  23503  23504  23505  23506  23507  23508  23509  23510  23511
  23512  23513  23514  23515  23516  23517  23518  23519  23520  23521  23522
  23523  23524  23525  23526  23527  23528  23529  23530  23531  23532  23533
  23534  23535  23536  23537  23538  23539  23540  23541  23542  23543  23544
  23545  23546  23547  23548  23549  23550  23551  23552  23553  23554  23555
  23556  23557  23558  23559  23560  23561  23562  23563  23564  23565  23566
  23567  23568  23569  23570  23571  23572  23573  23574  23575  23576  23577
  23578  23579  23580  23581  23582  23583  23584  23585  23586  23587  23588
  23589  23590  23591  23592  23593  23594  23595  23596  23597  23598  23599
  23600  23601  23602  23603  23604  23605  23606  23607  23608  23609  23610
  23611  23612  23613  23614  23615  23616  23617  23618  23619  23620  23621
  23622  23623  23624  23625  23626  23627  23628  23629  23630  23631  23632
  23633  23634  23635  23636  23637  23638  23639  23640  23641  23642  23643
  23644  23645  23646  23647  23648  23649  23650  23651  23652  23653  23654
  23655  23656  23657  23658  23659  23660  23661  23662  23663  23664  23665
  23666  23667  23668  23669  23670  23671  23672  23673  23674  23675  23676
  23677  23678  23679  23680  23681  23682  23683  23684  23685  23686  23687
  23688  23689  23690  23691  23692  23693  23694  23695  23696  23697  23698
  23699  23700  23701  23702  23703  23704  23705  23706  23707  23708  23709
  23710  23711  23712  23713  23714  23715  23716  23717  23718  23719  23720
  23721  23722  23723  23724  23725  23726  23727  23728  23729  23730  23731
  23732  23733  23734  23735  23736  23737  23738  23739  23740  23741  23742
  23743  23744  23745  23746  23747  23748  23749  23750  23751  23752  23753
  23754  23755  23756  23757  23758  23759  23760  23761  23762  23763  23764
  23765  23766  23767  23768  23769  23770  23771  23772  23773  23774  23775
  23776  23777  23778  23779  23780  23781  23782  23783  23784  23785  23786
  23787  23788  23789  23790  23791  23792  23793  23794  23795  23796  23797
  23798  23799  23800  23801  23802  23803  23804  23805  23806  23807  23808
  23809  23810  23811  23812  23813  23814  23815  23816  23817  23818  23819
  23820  23821  23822  23823  23824  23825  23826  23827  23828  23829  23830
  23831  23832  23833  23834  23835  23836  23837  23838  23839  23840  23841
  23842  23843  23844  23845  23846  23847  23848  23849  23850  23851  23852
  23853  23854  23855  23856  23857  23858  23859  23860  23861  23862  23863
  23864  23865  23866  23867  23868  23869  23870  23871  23872  23873  23874
  23875  23876  23877  23878  23879  23880  23881  23882  23883  23884  23885
  23886  23887  23888  23889  23890  23891  23892  23893  23894  23895  23896
  23897  23898  23899  23900  23901  23902  23903  23904  23905  23906  23907
  23908  23909  23910  23911  23912  23913  23914  23915  23916  23917  23918
  23919  23920  23921  23922  23923  23924  23925  23926  23927  23928  23929
  23930  23931  23932  23933  23934  23935  23936  23937  23938  23939  23940
  23941  23942  23943  23944  23945  23946  23947  23948  23949  23950  23951
  23952  23953  23954  23955  23956  23957  23958  23959  23960  23961  23962
  23963  23964  23965  23966  23967  23968  23969  23970  23971  23972  23973
  23974  23975  23976  23977  23978  23979  23980  23981  23982  23983  23984
  23985  23986  23987  23988  23989  23990  23991  23992  23993  23994  23995
  23996  23997  23998  23999  24000  24001  24002  24003  24004  24005  24006
  24007  24008  24009  24010  24011  24012  24013  24014  24015  24016  24017
  24018  24019  24020  24021  24022  24023  24024  24025  24026  24027  24028
  24029  24030  24031  24032  24033  24034  24035  24036  24037  24038  24039
  24040  24041  24042  24043  24044  24045  24046  24047  24048  24049  24050
  24051  24052  24053  24054  24055  24056  24057  24058  24059  24060  24061
  24062  24063  24064  24065  24066  24067  24068  24069  24070  24071  24072
  24073  24074  24075  24076  24077  24078  24079  24080  24081  24082  24083
  24084  24085  24086  24087  24088  24089  24090  24091  24092  24093  24094
  24095  24096  24097  24098  24099  24100  24101  24102  24103  24104  24105
  24106  24107  24108  24109  24110  24111  24112  24113  24114  24115  24116
  24117  24118  24119  24120  24121  24122  24123  24124  24125  24126  24127
  24128  24129  24130  24131  24132  24133  24134  24135  24136  24137  24138
  24139  24140  24141  24142  24143  24144  24145  24146  24147  24148  24149
  24150  24151  24152  24153  24154  24155  24156  24157  24158  24159  24160
  24161  24162  24163  24164  24165  24166  24167  24168  24169  24170  24171
  24172  24173  24174  24175  24176  24177  24178  24179  24180  24181  24182
  24183  24184  24185  24186  24187  24188  24189  24190  24191  24192  24193
  24194  24195  24196  24197  24198  24199  24200  24201  24202  24203  24204
  24205  24206  24207  24208  24209  24210  24211  24212  24213  24214  24215
  24216  24217  24218  24219  24220  24221  24222  24223  24224  24225  24226
  24227  24228  24229  24230  24231  24232  24233  24234  24235  24236  24237
  24238  24239  24240  24241  24242  24243  24244  24245  24246  24247  24248
  24249  24250  24251  24252  24253  24254  24255  24256  24257  24258  24259
  24260  24261  24262  24263  24264  24265  24266  24267  24268  24269  24270
  24271  24272  24273  24274  24275  24276  24277  24278  24279  24280  24281
  24282  24283  24284  24285  24286  24287  24288  24289  24290  24291  24292
  24293  24294  24295  24296  24297  24298  24299  24300  24301  24302  24303
  24304  24305  24306  24307  24308  24309  24310  24311  24312  24313  24314
  24315  24316  24317  24318  24319  24320  24321  24322  24323  24324  24325
  24326  24327  24328  24329  24330  24331  24332  24333  24334  24335  24336
  24337  24338  24339  24340  24341  24342  24343  24344  24345  24346  24347
  24348  24349  24350  24351  24352  24353  24354  24355  24356  24357  24358
  24359  24360  24361  24362  24363  24364  24365  24366  24367  24368  24369
  24370  24371  24372  24373  24374  24375  24376  24377  24378  24379  24380
  24381  24382  24383  24384  24385  24386  24387  24388  24389  24390  24391
  24392  24393  24394  24395  24396  24397  24398  24399  24400  24401  24402
  24403  24404  24405  24406  24407  24408  24409  24410  24411  24412  24413
  24414  24415  24416  24417  24418  24419  24420  24421  24422  24423  24424
  24425  24426  24427  24428  24429  24430  24431  24432  24433  24434  24435
  24436  24437  24438  24439  24440  24441  24442  24443  24444  24445  24446
  24447  24448  24449  24450  24451  24452  24453  24454  24455  24456  24457
  24458  24459  24460  24461  24462  24463  24464  24465  24466  24467  24468
  24469  24470  24471  24472  24473  24474  24475  24476  24477  24478  24479
  24480  24481  24482  24483  24484  24485  24486  24487  24488  24489  24490
  24491  24492  24493  24494  24495  24496  24497  24498  24499  24500  24501
  24502  24503  24504  24505  24506  24507  24508  24509  24510  24511  24512
  24513  24514  24515  24516  24517  24518  24519  24520  24521  24522  24523
  24524  24525  24526  24527  24528  24529  24530  24531  24532  24533  24534
  26771  26832  26833  26834  26835  26836  26837  26838  26839  26840  26864
  26870  26871  26872  26873  26874  26875  26876  26877  26878  26879  26880
  26881  26882  26883  26889  26890  26891  26892  26893  26894  26895  26896
  26898  26899  26900  26901  26902  26904  26926  26927  26928  26929  26930
  26931  26932  26933  26934  26935  26936  26937  26938  26939  26940  26941
  26942  26943  26944  26945  26946  26968  26969  26970  26971  26972  26973
  26974  26975  26976  26977  26978  26979  26980  26981  26982  26983  26984
  26985  26986  26987  26988  26997  26998  26999  27000  27001  27002  27003
  27004  27005  27006  27007  27008  27009  27010  27011  27012  27013  27014
  27253  27254  27255  27256  27257  27258  27259  27260  27261  27262  27263
  27285  28914  28917  28994  28995  28996  28997  29000  29001  29002  29003
  29004  29005  29007  29008  29009  29010  29011  29012  29013  29014  29015
  29110  29111  29112  29113  29114  29115  29116  29117  29118  29119  29120
  29121  29122  29123  29124  29125  29147  29148  29149  29150  29151  29152
  29153  29154  29155  29156  29157  29158  29159  29160  29161  29162  29163
  29164  29165  29166  29168  29190  29191  29192  29193  29194  29195  29196
  29197  29198  29199  29200  29201  29202  29203  29204  29205  29206  29207
  29210  29211  29212  29213  29214  29215  29216  29217  29218  29219  29220
  29221  29222  29223  29224  29225  29226  29227  29228  29229  29230  29231
  29232  29233  29234  29235  29236  29275  29276  29277  29278  29279  29280
  29281  29282  29283  29284  29285  29286  29287  29288  29289  29290  29291
  29292  29293  29294  29295  29296  29297  29298  29299  29300  29375  29376
  29377  29378  29379  29380  29381  29382  29383  29384  29385  29386  29387
  29388  29389  29390  29391  29392  29393  29394  29395  29396  29397  29398
  29399  29400  29401  29402  29403  29404  29405  29406  29407  29408  29409
  29410  29411  29412  29413  29414  29415  29416  29417  29418  29419  29421
  29423  29424  29425  29426  29427  29428  29429  29430  29431  29432  29433
  29434  29435  29436  29437  29438  29439  29440  29441  29442  29443  29444
  29445  29446  29447  29448  29449  29450  29451  29452  29453  29454  29455
  29456  29457  29458  29459  29460  29461  29462  29463  29464  29465  29466
  29467  29468  29469  29486  29487  29488  29489  29490  29491  29492  29493
  29494  29495  29496  29497  29498  29499  29500  29501  29502  29503  29504
  29505  29506  29507  29508  29509  29510  29511  29512  29513  29514  29515
  29516  29517  29518  29519  29520  29521  29522  29523  29524  29525  29526
  29527  29528  29529  29530  29531  29532  29554  29555  29556  29557  29558
  29559  29560  29561  29562  29563  29564  29565  29566  29567  29568  29569
  29570  29571  29572  29573  29574  29575  29576  29577  29578  29579  29580
  29581  29582  29583  29584  29585  29586  29587  29588  29589  29590  29591
  29592  29593  29594  29595  29596  29597  29598  29599  29600  29601  29602
  29603  29604  29605  29606  29607  29608  29609  29610  29611  29612  29613
  29614  29615  29616  29617  29618  29619  29620  29621  29622  29623  29624
  29625  29626  29627  29628  29629  29630  29631  29632  29633  29634  29635
  29636  29637  29638  29639  29640  29641  29642  29643  29644  29645  29646
  29647  29648  29649  29650  29651  29652  29653  29654  29655  29656  29657
  29658  29659  29660  29661  29662  29663  29664  29665  29666  29688  29689
  29690  29691  29692  29693  29694  29695  29696  29697  29698  29699  29700
  29701  29702  29703  29704  29705  29706  29707  29708  29709  29710  29711
  29712  29713  29714  29715  29716  29717  29718  29719  29720  29721  29722
  29723  29724  29725  29726  29727  29728  29729  29730  29773  29774  29775
  29776  29777  29778  29779  29780  29781  29782  29783  29784  29785  29786
  29787  29788  29789  29790  29791  29792  29793  29794  29795  29796  29797
  29798  29799  29800  29801  29802  29803  29804  29805  29806  29807  29808
  29809  29810  29811  29812  29813  29814  29815  29816  29817  29818  29819
  29820  29821  29822  29823  29824  29825  29826  29827  29828  29829  29830
  29831  29832  29833  29834  29835  29836  29837  29838  29839  29840  29841
  29842  29843  29844  29845  29846  29847  29848  29849  29850  29851  29852
  29853  29854  29855  29856  29857  29858  29859  29860  29861  29862  29863
  29864  29865  29866  29867  29868  29869  29870  29871  29872  29873  29879
  29880  29881  29882  29883  29884  29885  29886  29887  29888  29889  29890
  29891  29892  29893  29894  29916  29917  29918  29919  29920  29921  29922
  29923  29924  29925  29926  29927  29928  29929  29930  29931  29932  29933
  29934  29935  29936  29937  29938  29939  29940  29941  29942  29943  29944
  29945  29946  29947  29948  29949  29950  29951  29952  29953  29975  29976
  29977  29978  29979  29980  29981  29982  29983  29984  29985  29986  29987
  29988  29989  29990  29991  29992  29993  29994  29995  29996  29997  29998
  29999  30000  30007  30009  30010  30011  30012  30013  30023  30024  30025
  30026  30027  30028  30029  30030  30031  30032  30033  30034  30035  30036
  30037  30038  30039  30040  30041  30042  30043  30044  30045  30046  30047
  30069  30070  30071  30072  30073  30074  30075  30076  30077  30078  30079
  30080  30081  30082  30083  30084  30090  30091  30092  30093  30094  30095
  30096  30097  30098  30099  30100  30102  30103  30106  30107  30108  30109
  30110  30111  30112  30113  30114  30115  30116  30117  30118  30119  30120
  30121  30122  30123  30124  30125  30126  30127  30128  30129  30130  30131
  30132  30133  30134  30135  30136  30137  30138  30139  30140  30141  30142
  30143  30144  30145  30146  30147  30148  30149  30150  30151  30152  30153
  30154  30155  30156  30157  30158  30159  30160  30161  30162  30163  30164
  30165  30166  30167  30168  30190  30191  30192  30193  30194  30195  30196
  30197  30198  30199  30200  30201  30202  30203  30204  30205  30206  30207
  30208  30209  30210  30238  30239  30240  30241  30242  30243  30244  30245
  30246  30247  30248  30249  30250  30251  30252  30253  30254  30255  30256
  30257  30258  30259  30260  30261  30262  30263  30264  30265  30266  30267
  30268  30269  30270  30271  30272  30273  30274  30275  30276  30277  30278
  30279  30281  30282  30287  30288  30289  30290  30291  30292  30293  30294
  30295  30296  30297  30298  30301  30302  30303  30304  30305  30306  30307
  30308  30309  30310  30311  30312  30313  30314  30315  30316  30317  30318
  30319  30320  30321  30322  30323  30324  30325  30326  30327  30328  30329
  30330  30331  30332  30333  30334  30335  30336  30337  30338  30339  30340
  30341  30342  30343  30344  30345  30346  30347  30348  30349  30350  30351
  30352  30353  30354  30355  30356  30357  30358  30359  30360  30361  30362
  30363  30364  30365  30366  30369  30370  30371  30372  30373  30374  30375
  30376  30377  30378  30379  30380  30381  30382  30383  30384  30397  30398
  30399  30400  30481  30482  30483  30484  30485  30486  30487  30488  30489
  30490  30491  30492  30493  30494  30495  30496  30497  30498  30499  30500
  30501  30502  30503  30504  30505  30506  30507  30508  30509  30510  30511
  30512  30513  30514  30515  30516  30517  30518  30519  30520  30521  30522
  30523  30524  30525  30526  30527  30528  30529  30530  30531  30532  30533
  30534  30535  30536  30537  30538  30539  30540  30541  30542  30543  30544
  30545  30546  30547  30548  30549  30550  30551  30552  30553  30554  30555
  30556  30557  30558  30559  30560  30561  30562  30563  30564  30565  30566
  30583  30584  30585  30586  30587  30588  30589  30590  30591  30592  30593
  30594  30595  30596  30597  30598  30599  30600  30601  30602  30603  30604
  30605  30606  30607  30608  30609  30610  30611  30612  30613  30614  30615
  30616  30617  30618  30619  30620  30621  30622  30623  30624  30652  30653
  30654  30655  30656  30657  30658  30659  30660  30661  30662  30663  30664
  30665  30666  30667  30668  30669  30670  30671  30672  30673  30674  30675
  30676  30677  30678  30679  30680  30681  30682  30683  30684  30685  30686
  30687  30688  30689  30690  30691  30692  30693  30694  30695  30696  30697
  30698  30699  30700  30701  30702  30703  30704  30705  30706  30707  30708
  30709  30710  30711  30712  30713  30714  30715  30716  30717  30718  30719
  30720  30721  30722  30723  30724  30725  30726  30727  30728  30729  30730
  30768  30769  30770  30771  30772  30773  30774  30775  30776  30777  30778
  30779  30780  30781  30782  30783  30784  30785  30786  30787  30788  30789
  30790  30791  30792  30793  30794  30795  30796  30797  30798  30799  30800
  30801  30802  30803  30804  30805  30806  30807  30808  30809  30810  30811
  30812  30813  30814  30815  30816  30817  30818  30819  30820  30821  30822
  30823  30824  30825  30826  30827  30828  30829  30830  30831  30832  30833
  30834  30835  30836  30837  30838  30839  30840  30841  30842  30843  30844
  30845  30846  30847  30848  30849  30850  30851  30852  30853  30854  30855
  30856  30857  30858  30859  30860  30861  30862  30863  30864  30865  30866
  30869  30870  30871  30879  30880  30881  30882  30883  30884  30885  30886
  30887  30888  30889  30890  30891  30892  30893  30894  30895  30896  30897
  30898  30899  30921  30922  30924  30925  30943  30946  30947  30948  30949
  30950  30951  30952  30953  30954  30955  30956  30957  30958  30959  30960
  30961  30962  30963  30964  30965  30966  30967  30968  30969  30970  30971
  30972  30973  30974  30975  30976  30977  30978  30979  30980  30981  30982
  30983  30984  30985  30986  30987  30988  30989  30990  30991  30992  30993
  30994  30995  30996  30997  30998  30999  31000  31001  31002  31003  31004
  31005  31006  31007  31008  31009  31010  31011  31012  31013  31014  31015
  31016  31017  31018  31019  31020  31021  31022  31023  31024  31025  31026
  31027  31028  31029  31030  31031  31032  31033  31034  31035  31036  31037
  31038  31039  31040  31041  31042  31043  31044  31045  31046  31047  31048
  31049  31050  31051  31052  31053  31054  31055  31056  31057  31058  31059
  31060  31061  31062  31063  31064  31065  31066  31067  31068  31069  31070
  31071  31072  31073  31074  31075  31076  31077  31078  31079  31080  31081
  31082  31083  31084  31085  31086  31087  31088  31089  31090  31091  31092
  31093  31094  31095  31096  31097  31098  31099  31100  31101  31102  31103
  31104  31105  31106  31107  31108  31109  31110  31111  31112  31113  31114
  31115  31116  31117  31118  31119  31120  31121  31122  31123  31124  31125
  31126  31127  31128  31129  31130  31131  31132  31133  31134  31135  31136
  31137  31138  31139  31140  31141  31142  31143  31144  31145  31146  31147
  31148  31149  31150  31151  31152  31153  31154  31155  31156  31157  31158
  31159  31160  31161  31162  31163  31164  31165  31166  31167  31168  31169
  31170  31171  31172  31173  31174  31175  31176  31177  31178  31179  31180
  31181  31182  31183  31184  31185  31186  31187  31188  31189  31190  31191
  31192  31193  31194  31195  31196  31197  31198  31199  31200  31201  31202
  31203  31204  31205  31206  31207  31208  31209  31210  31211  31212  31213
  31214  31215  31216  31217  31218  31219  31220  31221  31222  31223  31224
  31225  31226  31227  31228  31229  31230  31231  31232  31233  31234  31235
  31236  31237  31238  31239  31240  31241  31242  31243  31244  31245  31246
  31247  31248  31249  31250  31251  31252  31253  31254  31255  31256  31257
  31258  31259  31260  31261  31262  31263  31264  31265  31266  31267  31268
  31269  31270  31271  31272  31273  31274  31275  31276  31277  31278  31279
  31280  31281  31282  31283  31284  31285  31295  31296  31313  31314  31315
  31316  31317  31318  31319  31320  31321  31322  31323  31324  31325  31326
  31327  31328  31329  31330  31331  31332  31333  31334  31335  31336  31337
  31338  31339  31340  31341  31342  31343  31344  31345  31346  31347  31348
  31349  31350  31351  31352  31353  31354  31355  31356  31357  31358  31359
  31360  31361  31362  31363  31364  31365  31366  31367  31368  31369  31370
  31371  31372  31373  31374  31375  31376  31377  31378  31379  31380  31381
  31382  31383  31384  31385  31386  31387  31388  31389  31390  31391  31392
  31393  31394  31395  31396  31397  31398  31399  31400  31401  31402  31403
  31404  31405  31406  31407  31408  31409  31410  31411  31412  31450  31451
  31452  31453  31454  31455  31456  31457  31458  31459  31460  31461  31462
  31463  31464  31465  31466  31467  31468  31469  31470  31471  31472  31473
  31474  31475  31476  31477  31478  31479  31480  31481  31482  31483  31484
  31485  31486  31487  31488  31489  31490  31491  31492  31493  31494  31495
  31496  31506  31511  31512  31513  31514  31515  31516  31556  31557  31558
  31559  31560  31561  31562  31563  31564  31565  31566  31567  31568  31569
  31570  31571  31572  31573  31574  31575  31576  31577  31578  31579  31580
  31581  31582  31583  31584  31585  31586  31587  31588  31589  31590  31591
  31592  31593  31594  31595  31596  31597  31598  31599  31600  31601  31602
  31603  31604  31605  31606  31607  31608  31609  31610  31611  31612  31613
  31614  31615  31616  31617  31618  31619  31620  31621  31622  31623  31624
  31625  31626  31627  31628  31629  31630  31631  31632  31633  31634  31635
  31636  31637  31638  31639  31640  31641  31642  31643  31644  31645  31667
  31668  31669  31670  31671  31672  31673  31674  31675  31676  31677  31678
  31679  31680  31681  31682  31683  31684  31685  31686  31687  31688  31689
  31690  31691  31692  31693  31694  31695  31696  31697  31698  31699  31721
  31722  31723  31724  31725  31726  31727  31728  31729  31730  31731  31732
  31733  31734  31735  31736  31737  31738  31739  31740  31741  31742  31743
  31744  31745  31746  31747  31748  31749  31750  31751  31752  31753  31754
  31755  31756  31757  31758  31759  31760  31761  31762  31784  31785  31786
  31787  31788  31789  31790  31791  31792  31793  31794  31795  31796  31797
  31798  31799  31800  31801  31802  31803  31804  31805  31806  31807  31808
  31809  31810  31811  31812  31813  31814  31815  31816  31817  31818  31819
  31820  31821  31822  31823  31824  31825  31869  31870  31871  31872  31873
  31874  31875  31876  31877  31878  31879  31880  31881  31882  31883  31884
  31885  31886  31887  31888  31889  31890  31891  31892  31893  31894  31895
  31896  31897  31898  31899  31900  31901  31902  31903  31904  31905  31906
  31907  31908  31909  31910  31932  31933  31934  31935  31936  31937  31938
  31939  31940  31941  31942  31943  31944  31945  31946  31947  31948  32018
  32019  32020  32021  32022  32023  32024  32025  32026  32027  32028  32029
  32030  32031  32032  32033  32034  32035  32036  32037  32038  32039  32040
  32041  32042  32043  32044  32045  32046  32047  32048  32049  32050  32051
  32052  32053  32054  32055  32056  32057  32058  32059  32081  32082  32083
  32084  32085  32086  32087  32088  32089  32090  32091  32092  32093  32094
  32095  32096  32097  32098  32099  32100  32101  32102  32103  32104  32105
  32106  32107  32108  32109  32110  32111  32112  32113  32114  32115  32116
  32117  32118  32119  32120  32121  32122  32186  32187  32188  32189  32190
  32191  32192  32193  32194  32195  32196  32197  32198  32199  32200  32201
  32202  32203  32204  32205  32206  32207  32208  32209  32210  32211  32212
  32213  32214  32215  32216  32217  32218  32219  32220  32221  32222  32223
  32224  32225  32226  32227  32228  32229  32230  32231  32232  32233  32234
  32235  32236  32237  32238  32239  32240  32241  32242  32243  32244  32245
  32246  32247  32248  32249  32250  32251  32252  32253  32254  32255  32256
  32257  32258  32259  32260  32261  32262  32263  32264  32265  32266  32267
  32268  32269  32270  32271  32272  32273  32274  32275  32276  32277  32278
  32279  32280  32281  32282  32283  32284  32285  32286  32287  32288  32289
  32290  32291  32292  32293  32294  32295  32296  32297  32298  32363  32364
  32365  32366  32367  32368  32369  32370  32371  32372  32373  32374  32375
  32376  32377  32378  32379  32380  32381  32382  32383  32384  32385  32386
  32387  32388  32389  32390  32391  32392  32393  32394  32395  32396  32397
  32398  32399  32400  32401  32402  32403  32404  32527  32528  32529  32530
  32531  32532  32533  32534  32535  32536  32537  32538  32539  32540  32541
  32542  32543  32544  32545  32546  32547  32548  32549  32550  32551  32552
  32553  32554  32555  32556  32557  32558  32559  32560  32561  32562  32563
  32564  32565  32566  32567  32568  32569  32570  32571  32572  32573  32637
  32638  32639  32640  32641  32642  32643  32644  32645  32646  32647  32648
  32649  32650  32651  32652  32653  32654  32655  32656  32657  32658  32659
  32660  32661  32662  32663  32664  32665  32666  32667  32668  32669  32670
  32671  32672  32673  32674  32675  32676  32677  32678  32679  32680  32681
  32682  32683  32684  32685  32686  32687  32688  32689  32690  32691  32692
  32693  32694  32695  32696  32697  32698  32699  32700  32759  32760  32761
  32762  32763  32764  32765  32766  32767  32768  32769  32770  32771  32772
  32773  32774  32775  32776  32777  32778  32779  32780  32781  32782  32783
  32784  32785  32786  32787  32788  32789  32790  32791  32792  32793  32794
  32795  32796  32797  32798  32799  32800  32801  32802  32803  32804  32805
  32848  32849  32850  32851  32852  32853  32854  32855  32856  32857  32858
  32859  32860  32861  32862  32863  32864  32865  32866  32867  32868  32869
  32870  32871  32872  32873  32874  32875  32876  32877  32878  32879  32880
  32881  32882  32883  32884  32885  32886  32887  32888  32889  32890  32891
  32892  32893  32894  32895  32896  32897  32898  32899  32900  32901  32902
  32903  32904  32905  32906  32907  32908  32909  32910  32911  32912  32913
  32914  32915  32916  32917  32918  32919  32920  32921  32922  32923  32924
  32925  32926  32927  32928  32929  32930  32931  32932  32933  32934  32935
  32936  32937  32938  32939  32940  32941  32942  32943  32944  32945  32946
  32947  32948  32949  32950  32951  32952  32953  32954  32955  32956  32957
  32958  32959  32960  32961  32962  32963  32964  32965  32966  32967  32968
  32969  32970  32971  32972  32973  32974  32975  32976  32977  32978  32979
  32980  32981  32982  32983  32984  32985  33012  33013  33014  33015  33016
  33017  33018  33019  33020  33021  33022  33023  33024  33025  33026  33027
  33079  33080  33081  33082  33163  33164  33165  33166  33178  33180  33181
  33182  33183  33184  33185  33186  33187  33202  33204  33207  33208  33209
  33210  33211  33212  33213  33214  33231  33866  33870  33871  34113  34115
  34117  34118  34119  34120  34121  34122  34123  34124  34125  34126  34127
  34128  34129  34152  34156  34157  34158  34159  34160  34161  34162  34163
  34164  34165  34166  34167  34168  34169  34170  34171  34184  34197  34207
  34208  34209  34210  34211  34212  34213  34214  34532  35220  35221  35222
  35223  35224  35225  35226  35227  35228  35229  35230  35231  35232  35233
  35234  35235  35236  35237  35238  35239  35240  35241  35242  35243  35244
  35245  35246  35247  35248  35249  35250  35251  35252  35253  35254  35255
  35256  35257  35258  35259  35260  35261  35262  35263  35264  35265  35266
  35267  35268  35269  35270  35271  35272  35273  35274  35275  35276  35277
  35278  35279  35280  35281  35282  35283  35284  35285  35286  35287  35288
  35289  35290  35291  35292  35293  35294  35295  35296  35297  35298  35299
  35300  35301  35302  35303  35304  35305  35306  35307  35308  35309  35310
  35311  35312  35313  35314  35315  35316  35317  35318  35319  35320  35321
  35322  35323  35324  35325  35326  35327  35328  35329  35330  35331  35332
  35333  35334  35335  35336  35337  35338  35339  35340  35341  35342  35343
  35344  35345  35346  35347  35348  35349  35350  35351  35352  35353  35354
  35355  35356  35357  35358  35359  35360  35361  35362  35363  35364  35365
  35366  35367  35368  35369  35370  35371  35372  35373  35374  35375  35376
  35377  35378  35379  35380  35381  35382  35383  35384  35385  35386  35387
  35388  35389  35390  35391  35392  35393  35394  35395  35396  35397  35398
  35399  35400  35401  35402  35403  35404  35405  35406  35407  35408  35409
  35410  35411  35412  35413  35414  35415  35416  35417  35418  35419  35420
  35421  35422  35423  35424  35425  35426  35427  35428  35429  35430  35431
  35432  35433  35434  35435  35436  35437  35438  35439  35440  35441  35442
  35443  35444  35445  35446  35447  35448  35449  35450  35451  35452  35453
  35454  35455  35456  35457  35458  35459  35460  35461  35462  35463  35464
  35465  35466  35467  35468  35469  35470  35471  35472  35473  35474  35475
  35476  35477  35478  35479  35480  35481  35482  35483  35484  35485  35486
  35487  35488  35489  35490  35491  35492  35493  35494  35495  35496  35497
  35498  35499  35500  35501  35502  35503  35504  35505  35506  35507  35508
  35509  35510  35511  35512  35513  35514  35515  35516  35517  35518  35519
  35520  35521  35522  35523  35524  35525  35526  35527  35528  35529  35530
  35531  35532  35533  35534  35535  35536  35537  35538  35539  35540  35541
  35542  35543  35544  35545  35546  35547  35548  35549  35550  35551  35552
  35553  35554  35555  35556  35557  35558  35559  35560  35561  35562  35563
  35564  35565  35566  35567  35568  35569  35570  35571  35572  35573  35574
  35575  35576  35577  35578  35579  35580  35581  35582  35583  35584  35585
  35586  35587  35588  35589  35590  35591  35592  35593  35594  35595  35596
  35597  35598  35599  35600  35601  35602  35603  35604  35605  35606  35607
  35608  35609  35610  35611  35612  35613  35614  35615  35616  35617  35618
  35619  35620  35621  35622  35623  35624  35625  35626  35627  35628  35629
  35630  35631  35632  35633  35634  35635  35636  35637  35638  35639  35640
  35641  35642  35643  35644  35645  35646  35647  35648  35649  35650  35651
  35652  35653  35654  35655  35656  35657  35658  35659  35660  35661  35662
  35663  35664  35665  35666  35667  35668  35669  35670  35671  35672  35673
  35674  35675  35676  35677  35678  35679  35680  35681  35682  35683  35684
  35685  35686  35687  35688  35689  35690  35691  35692  35693  35694  35695
  35696  35697  35698  35699  35700  35701  35702  35703  35704  35705  35706
  35707  35708  35709  35710  35711  35712  35713  35714  35715  35716  35717
  35718  35719  35720  35721  35722  35723  35724  35725  35726  35727  35728
  35729  35730  35731  35732  35733  35734  35735  35736  35737  35738  35739
  35740  35741  35742  35743  35744  35745  35746  35747  35748  35749  35750
  35751  35752  35753  35754  35755  35756  35757  35758  35759  35760  35761
  35762  35763  35764  35765  35766  35767  35768  35769  35770  35771  35772
  35773  35774  35775  35776  35777  35778  35779  35780  35781  35782  35783
  35784  35785  35786  35787  35788  35789  35790  35791  35792  35793  35794
  35795  35796  35797  35798  35799  35800  35801  35802  35803  35804  35805
  35806  35807  35808  35809  35810  35811  35812  35813  35814  35815  35816
  35817  35818  35819  35820  35821  35822  35823  35824  35825  35826  35827
  35828  35829  35830  35831  35832  35833  35834  35835  35836  35837  35838
  35839  35840  35841  35842  35843  35844  35845  35846  35847  35848  35849
  35850  35851  35852  35853  35854  35855  35856  35857  35858  35859  35860
  35861  35862  35863  35864  35865  35866  35867  35868  35869  35870  35871
  35872  35873  35874  35875  35876  35877  35878  35879  35880  35881  35882
  35883  35884  35885  35886  35887  35888  35889  35890  35891  35892  35893
  35894  35895  35896  35897  35898  35899  35900  35901  35902  35903  35904
  35905  35906  35907  35908  35909  35910  35911  35912  35913  35914  35915
  35916  35917  35918  35919  35920  35921  35922  35923  35924  35925  35926
  35927  35928  35929  35930  35931  35932  35933  35934  35935  35936  35937
  35938  35939  35940  35941  35942  35943  35944  35945  35946  35947  35948
  35949  35950  35951  35952  35953  35954  35955  35956  35957  35958  35959
  35960  35961  35962  35963  35964  35965  35966  35967  35968  35969  35970
  35971  35972  35973  35974  35975  35976  35977  35978  35979  35980  35981
  35982  35983  35984  35985  35986  35987  35988  35989  35990  35991  35992
  35993  35994  35995  35996  35997  35998  35999  36000  36001  36002  36003
  36004  36005  36006  36007  36008  36009  36010  36011  36012  36013  36014
  36015  36016  36017  36018  36019  36020  36021  36022  36023  36024  36025
  36026  36027  36028  36029  36030  36031  36032  36033  36034  36035  36036
  36037  36038  36039  36040  36041  36042  36043  36044  36045  36046  36047
  36048  36049  36050  36051  36052  36053  36054  36055  36056  36057  36058
  36059  36060  36061  36062  36063  36064  36065  36066  36067  36068  36069
  36070  36071  36072  36073  36074  36075  36076  36077  36078  36079  36080
  36081  36082  36083  36084  36085  36086  36087  36088  36089  36090  36091
  36092  36093  36094  36095  36096  36097  36098  36099  36100  36101  36102
  36103  36104  36105  36106  36107  36108  36109  36110  36111  36112  36113
  36114  36115  36116  36117  36118  36119  36120  36121  36122  36123  36124
  36125  36126  36127  36128  36129  36130  36131  36132  36133  36134  36135
  36136  36137  36138  36139  36140  36141  36142  36143  36144  36145  36146
  36147  36148  36149  36150  36151  36152  36153  36154  36155  36156  36157
  36158  36159  36160  36161  36162  36163  36164  36165  36166  36167  36168
  36169  36170  36171  36172  36173  36174  36175  36176  36177  36178  36179
  36180  36181  36182  36183  36184  36185  36186  36187  36188  36189  36190
  36191  36192  36193  36194  36195  36196  36197  36198  36199  36200  36201
  36202  36203  36204  36205  36206  36207  36208  36209  36210  36211  36212
  36213  36214  36215  36216  36217  36218  36219  36220  36221  36222  36223
  36224  36225  36226  36227  36228  36229  36230  36231  36232  36233  36234
  36235  36236  36237  36238  36239  36240  36241  36242  36243  36244  36245
  36246  36247  36248  36249  36250  36251  36252  36253  36254  36255  36256
  36257  36258  36259  36260  36261  36262  36263  36264  36265  36266  36267
  36268  36269  36270  36271  36272  36273  36274  36275  36276  36277  36278
  36279  36280  36281  36282  36283  36284  36285  36286  36287  36288  36289
  36290  36291  36292  36293  36294  36295  36296  36297  36298  36299  36300
  36301  36302  36303  36304  36305  36306  36307  36308  36309  36310  36311
  36312  36313  36314  36315  36316  36317  36318  36319  36320  36321  36322
  36323  36324  36325  36326  36327  36328  36329  36330  36331  36332  36333
  36334  36335  36336  36337  36338  36339  36340  36341  36342  36343  36344
  36345  36346  36347  36348  36349  36350  36351  36352  36353  36354  36355
  36356  36357  36358  36359  36360  36361  36362  36363  36364  36365  36366
  36367  36368  36369  36370  36371  36372  36373  36374  36375  36376  36377
  36378  36379  36380  36381  36382  36383  36384  36385  36386  36387  36388
  36389  36390  36391  36392  36393  36394  36395  36396  36397  36398  36399
  36400  36401  36402  36403  36404  36405  36406  36407  36408  36409  36410
  36411  36412  36413  36414  36415  36416  36417  36418  36419  36420  36421
  36422  36423  36424  36425  36426  36427  36428  36429  36430  36431  36432
  36433  36434  36435  36436  36437  36438  36439  36440  36441  36442  36443
  36444  36445  36446  36447  36448  36449  36450  36451  36452  36453  36454
  36455  36456  36457  36458  36459  36460  36461  36462  36463  36464  36465
  36466  36467  36468  36469  36470  36471  36472  36473  36474  36475  36476
  36477  36478  36479  36480  36481  36482  36483  36484  36485  36486  36487
  36488  36489  36490  36491  36492  36493  36494  36495  36496  36497  36498
  36499  36500  36501  36502  36503  36504  36505  36506  36507  36508  36509
  36510  36511  36512  36513  36514  36515  36516  36517  36518  36519  36520
  36521  36522  36523  36524  36525  36526  36527  36528  36529  36530  36531
  36532  36533  36534  36535  36536  36537  36538  36539  36540  36541  36542
  36543  36544  36545  36546  36547  36548  36549  36550  36551  36552  36553
  36554  36555  36556  36557  36558  36559  36560  36561  36562  36563  36564
  36565  36566  36567  36568  36569  36570  36571  36572  36573  36574  36575
  36576  36577  36578  36579  36580  36581  36582  36583  36584  36585  36586
  36587  36588  36589  36590  36591  36592  36593  36594  36595  36596  36597
  36598  36599  36600  36601  36602  36603  36604  36605  36606  36607  36608
  36609  36610  36611  36612  36613  36614  36615  36616  36617  36618  36619
  36620  36621  36622  36623  36624  36625  36626  36627  36628  36629  36630
  36631  36632  36633  36634  36635  36636  36637  36638  36639  36640  36641
  36642  36643  36644  36645  36646  36647  36648  36649  36650  36651  36652
  36653  36654  36655  36656  36657  36658  36659  36660  36661  36662  36663
  36664  36665  36666  36667  36668  36669  36670  36671  36672  36673  36674
  36675  36676  36677  36678  36679  36680  36681  36682  36683  36684  36685
  36686  36687  36688  36689  36690  36691  36692  36693  36694  36695  36696
  36697  36698  36699  36700  36701  36702  36703  36704  36705  36706  36707
  36708  36709  36710  36711  36712  36713  36714  36715  36716  36717  36718
  36719  36720  36721  36722  36723  36724  36725  36726  36727  36728  36729
  36730  36731  36732  36733  36734  36735  36736  36737  36738  36739  36740
  36741  36742  36743  36744  36745  36746  36747  36748  36749  36750  36751
  36752  36753  36754  36755  36756  36757  36758  36759  36760  36761  36762
  36763  36764  36765  36766  36767  36768  36769  36770  36771  36772  36773
  36774  36775  36776  36777  36778  36779  36780  36781  36782  36783  36784
  36785  36786  36787  36788  36789  36790  36791  36792  36793  36794  36795
  36796  36797  36798  36799  36800  36801  36802  36803  36804  36805  36806
  36807  36808  36809  36810  36811  36812  36813  36814  36815  36816  36817
  36818  36819  36820  36821  36822  36823  36824  36825  36826  36827  36828
  36829  36830  36831  36832  36833  36834  36835  36836  36837  36838  36839
  36840  36841  36842  36843  36844  36845  36846  36847  36848  36849  36850
  36851  36852  36853  36854  36855  36856  36857  36858  36859  36860  36861
  36862  36863  36864  36865  36866  36867  36868  36869  36870  36871  36872
  36873  36874  36875  36876  36877  36878  36879  36880  36881  36882  36883
  36884  36885  36886  36887  36888  36889  36890  36891  36892  36893  36894
  36895  36896  36897  36898  36899  36900  36901  36902  36903  36904  36905
  36906  36907  36908  36909  36910  36911  36912  36913  36914  36915  36916
  36917  36918  36919  36920  36921  36922  36923  36924  36925  36926  36927
  36928  36929  36930  36931  36932  36933  36934  36935  36936  36937  36938
  36939  36940  36941  36942  36943  36944  36945  36946  36947  36948  36949
  36950  36951  36952  36953  36954  36955  36956  36957  36958  36959  36960
  36961  36962  36963  36964  36965  36966  36967  36968  36969  36970  36971
  36972  36973  36974  36975  36976  36977  36978  36979  36980  36981  36982
  36983  36984  36985  36986  36987  36988  36989  36990  36991  36992  36993
  36994  36995  36996  36997  36998  36999  37000  37001  37002  37003  37004
  37005  37006  37007  37008  37009  37010  37011  37012  37013  37014  37015
  37016  37017  37018  37019  37020  37021  37022  37023  37024  37025  37026
  37027  37028  37029  37030  37031  37032  37033  37034  37035  37036  37037
  37038  37039  37040  37041  37042  37043  37044  37045  37046  37047  37048
  37049  37050  37051  37052  37053  37054  37055  37056  37057  37058  37059
  37060  37061  37062  37063  37064  37065  37066  37067  37068  37069  37070
  37071  37072  37073  37074  37075  37076  37077  37078  37079  37080  37081
  37082  37083  37084  37085  37086  37087  37088  37089  37090  37091  37092
  37093  37094  37095  37096  37097  37098  37099  37100  37101  37102  37103
  37104  37105  37106  37107  37108  37109  37110  37111  37112  37113  37114
  37115  37116  37117  37118  37119  37120  37121  37122  37123  37124  37125
  37126  37127  37128  37129  37130  37131  37132  37133  37134  37135  37136
  37137  37138  37139  37140  37141  37142  37143  37144  37145  37146  37147
  37148  37149  37150  37151  37152  37153  37154  37155  37156  37157  37158
  37159  37160  37161  37162  37163  37164  37165  37166  37167  37168  37169
  37170  37171  37172  37173  37174  37175  37176  37177  37178  37179  37180
  37181  37182  37183  37184  37185  37186  37187  37188  37189  37190  37191
  37192  37193  37194  37195  37196  37197  37198  37199  37200  37201  37202
  37203  37204  37205  37206  37207  37208  37209  37210  37211  37212  37213
  37214  37215  37216  37217  37218  37219  37220  37221  37222  37223  37224
  37225  37226  37227  37228  37229  37230  37231  37232  37233  37234  37235
  37236  37237  37238  37239  37240  37241  37242  37243  37244  37245  37246
  37247  37248  37249  37250  37251  37252  37253  37254  37255  37256  37257
  37258  37259  37260  37261  37262  37263  37264  37265  37266  37267  37268
  37269  37270  37271  37272  37273  37274  37275  37276  37277  37278  37279
  37280  37281  37282  37283  37284  37285  37286  37287  37288  37289  37290
  37291  37292  37293  37294  37295  37296  37297  37298  37299  37300  37301
  37302  37303  37304  37305  37306  37307  37308  37309  37310  37311  37312
  37313  37314  37315  37316  37317  37318  37319  37320  37321  37322  37323
  37324  37325  37326  37327  37328  37329  37330  37331  37332  37333  37334
  37335  37336  37337  37338  37339  37340  37341  37342  37343  37344  37345
  37346  37347  37348  37349  37350  37351  37352  37353  37354  37355  37356
  37357  37358  37359  37360  37361  37362  37363  37364  37365  37366  37367
  37368  37369  37370  37371  37372  37373  37374  37375  37376  37377  37378
  37379  37380  37381  37382  37383  37384  37385  37386  37387  37388  37389
  37390  37391  37392  37393  37394  37395  37396  37397  37398  37399  37400
  37401  37402  37403  37404  37405  37406  37407  37408  37409  37410  37411
  37412  37413  37414  37415  37416  37417  37418  37419  37420  37421  37422
  37423  37424  37425  37426  37427  37428  37429  37430  37431  37432  37433
  37434  37435  37436  37437  37438  37439  37440  37441  37442  37443  37444
  37445  37446  37447  37448  37449  37450  37451  37452  37453  37454  37455
  37456  37457  37458  37459  37460  37461  37462  37463  37464  37465  37466
  37467  37468  37469  37470  37471  37472  37473  37474  37475  37476  37477
  37478  37479  37480  37481  37482  37483  37484  37485  37486  37487  37488
  37489  37490  37491  37492  37493  37494  37495  37496  37497  37498  37499
  37500  37501  37502  37503  37504  37505  37506  37507  37508  37509  37510
  37511  37512  37513  37514  37515  37516  37517  37518  37519  37520  37521
  37522  37523  37524  37525  37526  37527  37528  37529  37530  37531  37532
  37533  37534  37535  37536  37537  37538  37539  37540  37541  37542  37543
  37544  37545  37546  37547  37548  37549  37550  37551  37552  37553  37554
  37555  37556  37557  37558  37559  37560  37561  37562  37563  37564  37565
  37566  37567  37568  37569  37570  37571  37572  37573  37574  37575  37576
  37577  37578  37579  37580  37581  37582  37583  37584  37585  37586  37587
  37588  37589  37590  37591  37592  37593  37594  37595  37596  37597  37598
  37599  37600  37601  37602  37603  37604  37605  37606  37607  37608  37609
  37610  37611  37612  37613  37614  37615  37616  37617  37618  37619  37620
  37621  37622  37623  37624  37625  37626  37627  37628  37629  37630  37631
  37632  37633  37634  37635  37636  37637  37638  37639  37640  37641  37642
  37643  37644  37645  37646  37647  37648  37649  37650  37651  37652  37653
  37654  37655  37656  37657  37658  37659  37660  37661  37662  37663  37664
  37665  37666  37667  37668  37669  37670  37671  37672  37673  37674  37675
  37676  37677  37678  37679  37680  37681  37682  37683  37684  37685  37686
  37687  37688  37689  37690  37691  37692  37693  37694  37695  37696  37697
  37698  37699  37700  37701  37702  37703  37704  37705  37706  37707  37708
  37709  37710  37711  37712  37713  37714  37715  37716  37717  37718  37719
  37720  37721  37722  37723  37724  37725  37726  37727  37728  37729  37730
  37731  37732  37733  37734  37735  37736  37737  37738  37739  37740  37741
  37742  37743  37744  37745  37746  37747  37748  37749  37750  37751  37752
  37753  37754  37755  37756  37757  37758  37759  37760  37761  37762  37763
  37764  37765  37766  37767  37768  37769  37770  37771  37772  37773  37774
  37775  37776  37777  37778  37779  37780  37781  37782  37783  37784  37785
  37786  37787  37788  37789  37790  37791  37792  37793  37794  37795  37796
  37797  37798  37799  37800  37801  37802  37803  37804  37805  37806  37807
  37808  37809  37810  37811  37812  37813  37814  37815  37816  37817  37818
  37819  37820  37821  37822  37823  37824  37825  37826  37827  37828  37829
  37830  37831  37832  37833  37834  37835  37836  37837  37838  37839  37840
  37841  37842  37843  37844  37845  37846  37847  37848  37849  37850  37851
  37852  37853  37854  37855  37856  37857  37858  37859  37860  37861  37862
  37863  37864  37865  37866  37867  37868  37869  37870  37871  37872  37873
  37874  37875  37876  37877  37878  37879  37880  37881  37882  37883  37884
  37885  37886  37887  37888  37889  37890  37891  37892  37893  37894  37895
  37896  37897  37898  37899  37900  37901  37902  37903  37904  37905  37906
  37907  37908  37909  37910  37911  37912  37913  37914  37915  37916  37917
  37918  37919  37920  37921  37922  37923  37924  37925  37926  37927  37928
  37929  37930  37931  37932  37933  37934  37935  37936  37937  37938  37939
  37940  37941  37942  37943  37944  37945  37946  37947  37948  37949  37950
  37951  37952  37953  37954  37955  37956  37957  37958  37959  37960  37961
  37962  37963  37964  37965  37966  37967  37968  37969  37970  37971  37972
  37973  37974  37975  37976  37977  37978  37979  37980  37981  37982  37983
  37984  37985  37986  37987  37988  37989  37990  37991  37992  37993  37994
  37995  37996  37997  37998  37999  38000  38001  38002  38003  38004  38005
  38006  38007  38008  38009  38010  38011  38012  38013  38014  38015  38016
  38017  38018  38019  38020  38021  38022  38023  38024  38025  38026  38027
  38028  38029  38030  38031  38032  38033  38034  38035  38036  38037  38038
  38039  38040  38041  38042  38043  38044  38045  38046  38047  38048  38049
  38050  38051  38052  38053  38054  38055  38056  38057  38058  38059  38060
  38061  38062  38063  38064  38065  38066  38067  38068  38069  38070  38071
  38072  38073  38074  38075  38076  38077  38078  38079  38080  38081  38082
  38083  38084  38085  38086  38087  38088  38089  38090  38091  38092  38093
  38094  38095  38096  38097  38098  38099  38100  38101  38102  38103  38104
  38105  38106  38107  38108  38109  38110  38111  38112  38113  38114  38115
  38116  38117  38118  38119  38120  38121  38122  38123  38124  38125  38126
  38127  38128  38129  38130  38131  38132  38133  38134  38135  38136  38137
  38138  38139  38140  38141  38142  38143  38144  38145  38146  38147  38148
  38149  38150  38151  38152  38153  38154  38155  38156  38157  38158  38159
  38160  38161  38162  38163  38164  38165  38166  38167  38168  38169  38170
  38171  38172  38173  38174  38175  38176  38177  38178  38179  38180  38181
  38182  38183  38184  38185  38186  38187  38188  38189  38190  38191  38192
  38193  38194  38195  38196  38197  38198  38199  38200  38201  38202  38203
  38204  38205  38206  38207  38208  38209  38210  38211  38212  38213  38214
  38215  38216  38217  38218  38219  38220  38221  38222  38223  38224  38225
  38226  38227  38228  38229  38230  38231  38232  38233  38234  38235  38236
  38237  38238  38239  38240  38241  38242  38243  38244  38245  38246  38247
  38248  38249  38250  38251  38252  38253  38254  38255  38256  38257  38258
  38259  38260  38261  38262  38263  38264  38265  38266  38267  38268  38269
  38270  38271  38272  38273  38274  38275  38276  38277  38278  38279  38280
  38281  38282  38283  38284  38285  38286  38287  38288  38289  38290  38291
  38292  38293  38294  38295  38296  38297  38298  38299  38300  38301  38302
  38303  38304  38305  38306  38307  38308  38309  38310  38311  38312  38313
  38314  38315  38316  38317  38318  38319  38320  38321  38322  38323  38324
  38325  38326  38327  38328  38329  38330  38331  38332  38333  38334  38335
  38336  38337  38338  38339  38340  38341  38342  38343  38344  38345  38346
  38347  38348  38349  38350  38351  38352  38353  38354  38355  38356  38357
  38358  38359  38360  38361  38362  38363  38364  38365  38366  38367  38368
  38369  38370  38371  38372  38373  38374  38375  38376  38377  38378  38379
  38380  38381  38382  38383  38384  38385  38386  38387  38388  38389  38390
  38391  38392  38393  38394  38395  38396  38397  38398  38399  38400  38401
  38402  38403  38404  38405  38406  38407  38408  38409  38410  38411  38412
  38413  38414  38415  38416  38417  38418  38419  38420  38421  38422  38423
  38424  38425  38426  38427  38428  38429  38430  38431  38432  38433  38434
  38435  38436  38437  38438  38439  38440  38441  38442  38443  38444  38445
  38446  38447  38448  38449  38450  38451  38452  38453  38454  38455  38456
  38457  38458  38459  38460  38461  38462  38463  38464  38465  38466  38467
  38468  38469  38470  38471  38472  38473  38474  38475  38476  38477  38478
  38479  38480  38481  38482  38483  38484  38485  38486  38487  38488  38489
  38490  38491  38492  38493  38494  38495  38496  38497  38498  38499  38500
  38501  38502  38503  38504  38505  38506  38507  38508  38509  38510  38511
  38512  38513  38514  38515  38516  38517  38518  38519  38520  38521  38522
  38523  38524  38525  38526  38527  38528  38529  38530  38531  38532  38533
  38534  38535  38536  38537  38538  38539  38540  38541  38542  38543  38544
  38545  38546  38547  38548  38549  38550  38551  38552  38553  38554  38555
  38556  38557  38558  38559  38560  38561  38562  38563  38564  38565  38566
  38567  38568  38569  38570  38571  38572  38573  38574  38575  38576  38577
  38578  38579  38580  38581  38582  38583  38584  38585  38586  38587  38588
  38589  38590  38591  38592  38593  38594  38595  38596  38597  38598  38599
  38600  38601  38602  38603  38604  38605  38606  38607  38608  38609  38610
  38611  38612  38613  38614  38615  38616  38617  38618  38619  38620  38621
  38622  38623  38624  38625  38626  38627  38628  38629  38630  38631  38632
  38633  38634  38635  38636  38637  38638  38639  38640  38641  38642  38643
  38644  38645  38646  38647  38648  38649  38650  38651  38652  38653  38654
  38655  38656  38657  38658  38659  38660  38661  38662  38663  38664  38665
  38666  38667  38668  38669  38670  38671  38672  38673  38674  38675  38676
  38677  38678  38679  38680  38681  38682  38683  38684  38685  38686  38687
  38688  38689  38690  38691  38692  38693  38694  38695  38696  38697  38698
  38699  38700  38701  38702  38703  38704  38705  38706  38707  38708  38709
  38710  38711  38712  38713  38714  38715  38716  38717  38718  38719  38720
  38721  38722  38723  38724  38725  38726  38727  38728  38729  38730  38731
  38732  38733  38734  38735  38736  38737  38738  38739  38740  38741  38742
  38743  38744  38745  38746  38747  38748  38749  38750  38751  38752  38753
  38754  38755  38756  38757  38758  38759  38760  38761  38762  38763  38764
  38765  38766  38767  38768  38769  38770  38771  38772  38773  38774  38775
  38776  38777  38778  38779  38780  38781  38782  38783  38784  38785  38786
  38787  38788  38789  38790  38791  38792  38793  38794  38795  38796  38797
  38798  38799  38800  38801  38802  38803  38804  38805  38806  38807  38808
  38809  38810  38811  38812  38813  38814  38815  38816  38817  38818  38819
  38820  38821  38822  38823  38824  38825  38826  38827  38828  38829  38830
  38831  38832  38833  38834  38835  38836  38837  38838  38839  38840  38841
  38842  38843  38844  38845  38846  38847  38848  38849  38850  38851  38852
  38853  38854  38855  38856  38857  38858  38859  38860  38861  38862  38863
  38864  38865  38866  38867  38868  38869  38870  38871  38872  38873  38874
  38875  38876  38877  38878  38879  38880  38881  38882  38883  38884  38885
  38886  38887  38888  38889  38890  38891  38892  38893  38894  38895  38896
  38897  38898  38899  38900  38901  38902  38903  38904  38905  38906  38907
  38908  38909  38910  38911  38912  38913  38914  38915  38916  38917  38918
  38919  38920  38921  38922  38923  38924  38925  38926  38927  38928  38929
  38930  38931  38932  38933  38934  38935  38936  38937  38938  38939  38940
  38941  38942  38943  38944  38945  38946  38947  38948  38949  38950  38951
  38952  38953  38954  38955  38956  38957  38958  38959  38960  38961  38962
  38963  38964  38965  38966  38967  38968  38969  38970  38971  38972  38973
  38974  38975  38976  38977  38978  38979  38980  38981  38982  38983  38984
  38985  38986  38987  38988  38989  38990  38991  38992  38993  38994  38995
  38996  38997  38998  38999  39000  39001  39002  39003  39004  39005  39006
  39007  39008  39009  39010  39011  39012  39013  39014  39015  39016  39017
  39018  39019  39020  39021  39022  39023  39024  39025  39026  39027  39028
  39029  39030  39031  39032  39033  39034  39035  39036  39037  39038  39039
  39040  39041  39042  39043  39044  39045  39046  39047  39048  39049  39050
  39051  39052  39053  39054  39055  39056  39057  39058  39059  39060  39061
  39062  39063  39064  39065  39066  39067  39068  39069  39070  39071  39072
  39073  39074  39075  39076  39077  39078  39079  39080  39081  39082  39083
  39084  39085  39086  39087  39088  39089  39090  39091  39092  39093  39094
  39095  39096  39097  39098  39099  39100  39101  39102  39103  39104  39105
  39106  39107  39108  39109  39110  39111  39112  39113  39114  39115  39116
  39117  39118  39119  39120  39121  39122  39123  39124  39125  39126  39127
  39128  39129  39130  39131  39132  39133  39134  39135  39136  39137  39138
  39139  39140  39141  39142  39143  39144  39145  39146  39147  39148  39149
  39150  39151  39152  39153  39154  39155  39156  39157  39158  39159  39160
  39161  39162  39163  39164  39165  39166  39167  39168  39169  39170  39171
  39172  39173  39174  39175  39176  39177  39178  39179  39180  39181  39182
  39183  39184  39185  39186  39187  39188  39189  39190  39191  39192  39193
  39194  39195  39196  39197  39198  39199  39200  39201  39202  39203  39204
  39205  39206  39207  39208  39209  39210  39211  39212  39213  39214  39215
  39216  39217  39218  39219  39220  39221  39222  39223  39224  39225  39226
  39227  39228  39229  39230  39231  39232  39233  39234  39235  39236  39237
  39238  39239  39240  39241  39242  39243  39244  39245  39246  39247  39248
  39249  39250  39251  39252  39253  39254  39255  39256  39257  39258  39259
  39260  39261  39262  39263  39264  39265  39266  39267  39268  39269  39270
  39271  39272  39273  39274  39275  39276  39277  39278  39279  39280  39281
  39282  39283  39284  39285  39286  39287  39288  39289  39290  39291  39292
  39293  39294  39295  39296  39297  39298  39299  39300  39301  39302  39303
  39304  39305  39306  39307  39308  39309  39310  39311  39312  39313  39314
  39315  39316  39317  39318  39319  39320  39321  39322  39323  39324  39325
  39326  39327  39328  39329  39330  39331  39332  39333  39334  39335  39336
  39337  39338  39339  39340  39341  39342  39343  39344  39345  39346  39347
  39348  39349  39350  39351  39352  39353  39354  39355  39356  39357  39358
  39359  39360  39361  39362  39363  39364  39365  39366  39367  39368  39369
  39370  39371  39372  39373  39374  39375  39376  39377  39378  39379  39380
  39381  39382  39383  39384  39385  39386  39387  39388  39389  39390  39391
  39392  39393  39394  39395  39396  39397  39398  39399  39400  39401  39402
  39403  39404  39405  39406  39407  39408  39409  39410  39411  39412  39413
  39414  39415  39416  39417  39418  39419  39420  39421  39422  39423  39424
  39425  39426  39427  39428  39429  39430  39431  39432  39433  39434  39435
  39436  39437  39438  39439  39440  39441  39442  39443  39444  39445  39446
  39447  39448  39449  39450  39451  39452  39453  39454  39455  39456  39457
  39458  39459  39460  39461  39462  39463  39464  39465  39466  39467  39468
  39469  39470  39471  39472  39473  39474  39475  39476  39477  39478  39479
  39480  39481  39482  39483  39484  39485  39486  39487  39488  39489  39490
  39491  39492  39493  41188  41189  41190  41191  41194  41195  41196  41197
  41198  41328  41329  41330  41331  41332  41333  41334  41335  41336  41337
  41338  41339  41340  41341  41342  41343  41344  41345  41346  41347  41348
  41349  41350  41351  41352  41353  41354  41355  41356  41357  41358  41359
  41360  41361  41383  41384  41385  41386  41387  41388  41389  41390  41391
  41392  41393  41394  41395  41396  41397  41398  41399  41400  41401  41402
  41403  41431  41432  41433  41434  41435  41436  41437  41438  41439  41440
  41441  41442  41443  41444  41445  41446  41447  41448  41449  41450  41451
  41452  41453  41454  41455  41456  41457  41479  41480  41481  41482  41483
  41484  41485  41486  41487  41488  41489  41490  41491  41492  41495  41496
  41497  41498  41499  41500  41501  41502  41503  41504  41505  41506  41507
  41508  41509  41510  41511  41512  41513  41514  41515  41585  41586  41587
  41588  41589  41590  41591  41592  41593  41594  41595  41596  41597  41598
  41599  41600  41601  41602  41603  41604  41605  41606  41607  41608  41609
  41610  41611  41612  41613  41614  41615  41616  41617  41618  41619  41620
  41621  41622  41623  41624  41625  41626  41633  41656  41657  41658  41661
  41662  41669  41672  41758  41759  41761  41762  41763  41764  41765  41766
  41767  41768  41769  41770  41771  41772  41773  41774  41775  41776  41777
  41778  41779  41780  41783  41793  41803  41804  41805  41806  41807  41808
  41809  41810  41811  41812  41813  41814  41815  41816  41817  41818  41819
  41820  41821  41822  41823  41824  41825  41826  41827  41828  41829  41830
  41831  41832  41833  41834  41835  41836  41837  41838  41839  41840  41841
  41842  41853  41854  41855  41856  41857  41858  41859  41860  41861  41862
  41863  41864  41865  41866  41867  41868  41869  41870  41871  41872  41873
  41874  41875  41876  41877  41878  41879  41880  41881  41882  41883  41884
  41885  41886  41887  41888  41889  41913  41916  41918  41919  41920  41921
  41922  41923  41924  41925  41926  41927  41928  41929  41930  41931  41932
  41933  41934  41935  41936  41937  41938  41939  41940  41941  41942  41968
  41975  41976  41977  41978  41979  41980  41981  41982  41983  41984  41985
  42016  42017  42018  42019  42020  42021  42022  42023  42024  42025  42026
  42027  42028  42029  42030  42031  42142  42143  42144  42145  42146  42147
  42148  42159  42160  42161  42163  42164  42165  42166  42167  42168  42169
  42215  42216  42217  42218  42219  42220  42221  42222  42223  42224  42225
  42226  42227  42228  42229  42230  42231  42232  42233  42234  42235  42236
  42237  42238  42239  42240  42241  42242  42243  42244  42245  42246  42247
  42248  42249  42250  42251  42252  42253  42254  42303  42304  42305  42306
  42307  42308  42310  42316  42320  42322  42323  42345  42346  42347  42348
  42349  42350  42351  42352  42353  42354  42355  42356  42357  42358  42359
  42360  42361  42362  42363  42364  42365  42387  42388  42389  42390  42391
  42392  42393  42394  42395  42396  42397  42398  42399  42400  42401  42402
  42403  42404  42405  42406  42407  42450  42451  42452  42453  42454  42455
  42456  42457  42458  42459  42460  42461  42462  42463  42464  42525  42526
  42527  42530  42531  42532  42533  42534  42535  42536  42537  42538  42539
  42540  42541  42542  42543  42544  42545  42546  42547  42548  42549  42550
  42551  42552  42553  42554  42555  42556  42557  42558  42559  42560  42561
  42562  42563  42564  42565  42566  42567  42568  42569  42570  42571  42580
  42581  42583  42585  42586  42587  42588  42589  42590  42591  42592  42599
  42614  42615  42616  42617  42618  42619  42620  42621  42622  42623  42624
  42625  42626  42627  42628  42629  42630  42632  42633  42639  42640  42641
  42642  42643  42644  42645  42646  42647  42649  42650  42651  42652  42653
  42654  42655  42656  42657  42658  42659  42660  42661  42662  42663  42664
  42665  42666  42667  42668  42669  42670  42671  42672  42673  42674  42675
  42676  42677  42678  42679  42680  42681  42682  42683  42684  42685  42686
  42687  42688  42689  42690  42691  42692  42693  42694  42695  42696  42697
  42698  42699  42700  42701  42702  42703  42704  42705  42706  42707  42708
  42709  42710  42711  42712  42713  42714  42715  42716  42717  42718  42719
  42720  42721  42722  42723  42724  42725  42726  42727  42728  42729  42730
  42731  42732  42733  42734  42735  42736  42737  42738  42739  42740  42741
  42742  42743  42744  42745  42746  42747  42748  42749  42750  42751  42752
  42753  42754  42755  42756  42757  42758  42759  42760  42761  42762  42763
  42764  42765  42766  42767  42768  42769  42770  42771  42772  42773  42774
  42775  42776  42777  42778  42779  42780  42781  42782  42783  42784  42785
  42786  42787  42788  42789  42790  42791  42792  42793  42794  42795  42796
  42797  42798  42799  42800  42801  42802  42803  42804  42805  42806  42807
  42808  42809  42810  42811  42812  42813  42814  42815  42816  42817  42818
  42819  42820  42821  42822  42823  42824  42825  42826  42827  42828  42829
  42830  42831  42832  42833  42834  42835  42836  42837  42838  42839  42840
  42841  42842  42843  42844  42845  42846  42847  42848  42849  42850  42851
  42852  42853  42854  42855  42856  42857  42858  42859  42860  42861  42862
  42863  42864  42865  42866  42867  42868  42869  42870  42871  42872  42873
  42874  42875  42876  42877  42878  42879  42880  42881  42882  42883  42884
  42885  42886  42887  42888  42889  42890  42891  42892  42893  42894  42895
  42896  42897  42898  42899  42900  42901  42902  42903  42904  42905  42906
  42907  42908  42909  42910  42911  42912  42913  42914  42915  42916  42917
  42918  42919  42920  42921  42922  42923  42924  42925  42926  42927  42928
  42929  42930  42931  42932  42933  42934  42935  42936  42937  42938  42939
  42940  42941  42942  42943  42944  42945  42946  42947  42948  42949  42950
  42951  42952  42953  42954  42955  42956  42957  42958  42959  42960  42961
  42962  42963  42964  42965  42966  42967  42968  42969  42970  42971  42972
  42973  42974  42975  42976  42977  42978  42979  42980  42981  42985  42987
  42988  42990  42991  42993  42994  42995  42996  42997  42998  42999  43000
  43001  43002  43003  43004  43005  43006  43007  43008  43009  43010  43011
  43012  43013  43014  43015  43016  43017  43018  43019  43020  43021  43022
  43023  43024  43025  43026  43027  43028  43029  43030  43031  43032  43033
  43034  43035  43036  43037  43038  43039  43040  43041  43042  43043  43046
  43048  43049  43050  43051  43052  43053  43054  43055  43056  43057  43058
  43059  43060  43061  43062  43063  43064  43065  43066  43067  43068  43069
  43070  43071  43072  43073  43074  43075  43076  43077  43078  43079  43080
  43081  43082  43083  43084  43085  43086  43088  43089  43090  43103  43104
  43105  43106  43107  43108  43109  43110  43111  43112  43113  43114  43115
  43116  43117  43118  43119  43120  43121  43122  43123  43124  43125  43126
  43127  43128  43129  43130  43131  43132  43133  43134  43135  43136  43137
  43138  43139  43140  43141  43142  43143  43144  43145  43146  43147  43148
  43149  43150  43151  43152  43153  43154  43155  43156  43157  43158  43159
  43160  43161  43162  43163  43164  43165  43166  43167  43168  43169  43170
  43171  43172  43173  43174  43175  43176  43177  43178  43179  43180  43181
  43182  43183  43184  43185  43186  43187  43188  43189  43190  43191  43192
  43193  43194  43195  43196  43197  43198  43199  43200  43201  43202  43203
  43204  43205  43206  43207  43208  43209  43210  43211  43212  43213  43214
  43215  43216  43217  43218  43219  43220  43221  43222  43223  43224  43225
  43226  43227  43228  43229  43230  43231  43232  43233  43234  43235  43236
  43237  43238  43239  43240  43241  43242  43243  43244  43245  43246  43247
  43248  43249  43250  43251  43252  43253  43254  43255  43256  43257  43258
  43259  43260  43261  43262  43263  43264  43265  43266  43267  43268  43269
  43270  43271  43272  43273  43274  43275  43276  43277  43278  43279  43280
  43281  43282  43283  43284  43285  43286  43287  43288  43289  43290  43291
  43292  43293  43294  43295  43296  43297  43298  43299  43300  43301  43302
  43303  43304  43305  43306  43307  43308  43309  43310  43311  43312  43313
  43314  43315  43316  43317  43318  43319  43320  43321  43322  43323  43324
  43325  43326  43327  43328  43329  43330  43331  43332  43333  43334  43335
  43336  43337  43338  43339  43340  43341  43342  43343  43344  43345  43346
  43347  43348  43349  43350  43351  43352  43353  43354  43355  43356  43357
  43358  43359  43360  43361  43363  43364  43365  43366  43367  43368  43369
  43370  43371  43372  43373  43374  43375  43376  43377  43378  43379  43380
  43381  43382  43383  43384  43385  43386  43387  43388  43389  43390  43391
  43392  43393  43394  43395  43396  43397  43398  43399  43400  43401  43402
  43403  43404  43405  43406  43407  43408  43409  43410  43411  43412  43413
  43414  43415  43416  43417  43418  43419  43420  43421  43422  43423  43424
  43425  43426  43427  43428  43429  43430  43431  43432  43433  43434  43435
  43436  43437  43438  43439  43440  43441  43442  43443  43444  43445  43446
  43447  43448  43449  43450  43451  43452  43453  43454  43455  43456  43457
  43458  43459  43460  43461  43462  43463  43464  43465  43466  43467  43468
  43469  43470  43471  43472  43473  43474  43475  43476  43477  43478  43479
  43480  43481  43482  43483  43484  43485  43486  43487  43488  43489  43490
  43491  43492  43493  43494  43495  43496  43497  43498  43499  43500  43501
  43502  43503  43504  43505  43506  43507  43508  43509  43510  43511  43512
  43513  43514  43515  43516  43517  43518  43519  43520  43521  43522  43523
  43524  43525  43526  43527  43528  43529  43530  43531  43532  43533  43534
  43535  43536  43537  43538  43539  43540  43541  43542  43543  43544  43545
  43546  43547  43548  43549  43550  43551  43552  43553  43554  43555  43556
  43557  43558  43559  43560  43561  43562  43563  43564  43565  43566  43567
  43568  43569  43570  43571  43572  43573  43574  43575  43576  43577  43578
  43579  43580  43581  43582  43583  43584  43585  43586  43587  43588  43589
  43590  43591  43592  43593  43594  43595  43596  43597  43598  43599  43600
  43601  43602  43603  43604  43605  43606  43607  43608  43609  43610  43611
  43612  43613  43614  43615  43616  43617  43618  43619  43620  43621  43622
  43623  43624  43625  43626  43627  43628  43629  43630  43631  43632  43633
  43634  43635  43636  43637  43638  43639  43640  43641  43642  43643  43644
  43645  43646  43647  43648  43649  43650  43651  43652  43653  43654  43655
  43656  43657  43658  43659  43660  43661  43662  43663  43664  43665  43666
  43667  43668  43669  43670  43671  43672  43673  43674  43675  43676  43677
  43678  43679  43680  43681  43682  43683  43684  43685  43686  43687  43688
  43689  43690  43691  43692  43693  43694  43695  43696  43697  43698  43699
  43700  43701  43702  43703  43704  43705  43706  43707  43708  43709  43710
  43711  43712  43713  43714  43715  43716  43717  43718  43719  43720  43721
  43722  43723  43724  43725  43726  43727  43728  43729  43730  43731  43732
  43733  43734  43735  43736  43737  43738  43739  43740  43741  43742  43743
  43744  43745  43746  43747  43748  43749  43750  43751  43752  43753  43754
  43755  43756  43757  43758  43759  43760  43761  43762  43763  43764  43765
  43766  43767  44197  44201  44202  44203  44204  44235  44236  44237  44238
  44239  44240  44241  44242  44243  44244  44245  44246  44247  44248  44249
  44250  44251  44252  44290  44291  44292  44293  44294  44295  44296  44297
  44298  44299  44300  44301  44302  44303  44304  44305  44306  44307  44308
  44309  44310  44311  44312  44313  44314  44315  44316  44371  44372  44373
  44374  44375  44409  44410  44411  44412  44413  44414  44415  44416  44417
  44418  44419  44420  44421  44422  44423  44424  44425  44426  44427  44428
  44429  44430  44431  44432  44433  44434  44435  44436  44437  44438  44439
  44440  44441  44442  44443  44444  44445  44446  44463  44464  44465  44466
  44467  44468  44469  44470  44471  44472  44473  44474  44475  44476  44477
  44478  44479  44480  44481  44482  44483  44505  44506  44507  44508  44509
  44510  44511  44512  44513  44514  44515  44516  44517  44518  44519  44520
  44521  44522  44523  44524  44525  44543  44544  44545  44546  44547  44548
  44549  44550  44551  44552  44553  44554  44555  44556  44557  44558  44601
  44602  44603  44604  44605  44606  44607  44608  44609  44610  44611  44612
  44613  44614  44615  44616  44617  44618  44619  44620  44621  44622  44623
  44624  44625  44626  44643  44644  44645  44646  44647  44648  44650  44653
  44656  44663  44727  44728  44729  44730  44731  44732  44733  44734  44735
  44736  44737  44738  44739  44740  44741  44742  44743  44747  44813  44814
  44815  44816  44817  44818  44819  44820  44821  44822  44823  44824  44825
  44826  44827  44828  44882  44883  44884  44885  44886  44887  44888  44889
  44890  44891  44892  44893  44894  44895  44896  44897  44974  44975  44976
  44977  44978  44979  44980  44981  44982  44983  44984  44985  44986  44987
  44996  44997  44998  44999  45000  45001  45002  45003  45004  45005  45006
  45007  45008  45076  45077  45078  45079  45080  45081  45082  45083  45084
  45086  45087  45088  45089  45090  45091  45092  45093  45096  45097  45098
  45099  45100  45101  45102  45103  45104  45105  45106  45107  45108  45109
  45110  45111  45112  45113  45114  45115  45116  45117  45118  45119  45120
  45121  45122  45123  45124  45125  45126  45127  45128  45129  45130  45131
  45132  45133  45134  45240  45241  45242  45243  45244  45245  45246  45247
  45248  45249  45250  45251  45252  45253  45254  45255  45256  45257  45258
  45259  45260  45261  45262  45263  45264  45265  45266  45314  45315  45316
  45317  45318  45319  45320  45321  45322  45323  45324  45325  45326  45327
  45328  45329  45330  45331  45332  45333  45334  45335  45336  45337  45338
  45339  45340  45341  45342  45343  45344  45345  45346  45347  45348  45349
  45350  45393  45394  45395  45396  45397  45398  45399  45419  45420  45421
  45422  45423  45424  45426  45427  45428  45429  45430  45431  45432  45433
  45434  45435  45436  45437  45438  45439  45440  45441  45442  45443  45444
  45445  45446  45447  45448  45449  45450  45451  45452  45453  45454  45455
  45456  45457  45458  45459  45460  45461  45462  45463  45464  45465  45466
  45467  45468  45469  45470  45471  45472  45473  45474  45475  45476  45477
  45478  45479  45480  45481  45482  45483  45484  45485  45486  45487  45488
  45489  45490  45491  45492  45520  45521  45522  45523  45524  45525  45526
  45527  45528  45529  45530  45531  45532  45533  45534  45535  45536  45537
  45538  45539  45540  45541  45542  45543  45544  45545  45546  45547  45548
  45549  45550  45551  45552  45553  45554  45555  45556  45557  45558  45559
  45560  45561  45562  45563  45564  45565  45566  45567  45568  45569  45570
  45571  45572  45573  45574  45575  45576  45577  45599  45600  45601  45602
  45603  45604  45605  45606  45607  45608  45609  45610  45611  45612  45613
  45614  45615  45616  45617  45618  45619  45620  45621  45622  45623  45624
  45625  45626  45627  45628  45629  45630  45631  45632  45633  45634  45635
  45636  45637  45638  45639  45640  45641  45642  45643  45644  45645  45683
  45684  45685  45686  45687  45688  45689  45690  45691  45692  45693  45694
  45695  45696  45697  45698  45699  45700  45701  45702  45703  45704  45705
  45706  45707  45708  45709  45710  45711  45712  45713  45714  45715  45716
  45717  45718  45719  45720  45768  45769  45770  45771  45772  45773  45774
  45775  45776  45777  45778  45779  45780  45781  45782  45783  45784  45785
  45786  45787  45788  45854  45855  45856  45857  45858  45859  45860  45861
  45862  45863  45864  45865  45866  45867  45868  45869  45870  45871  45872
  45873  45874  45875  45876  45877  45878  45879  45880  45881  45882  45883
  45884  45885  45886  45887  45888  45889  45890  45891  45892  45893  45894
  45895  45896  45897  45898  45899  45900  45905  45906  45907  45908  45909
  45910  45911  45912  45913  45914  45915  45916  45917  45918  45919  45920
  45921  45922  45923  45924  45925  45926  45927  45928  45929  45930  45931
  45932  45933  45934  45935  45936  45937  45938  45939  45940  45941  45942
  45943  45944  45945  45946  45947  45948  45949  45950  45951  45952  45953
  45954  45955  45956  45957  45958  45959  45960  45961  45962  45963  45964
  45965  45966  45967  45968  45969  45970  45971  45972  45973  45974  45975
  45976  45977  45978  45979  45980  45981  45982  45983  45984  45985  45986
  45987  45988  45989  45990  45991  45992  45993  45994  45995  45996  45997
  45998  45999  46000  46001  46002  46003  46004  46005  46006  46007  46008
  46009  46010  46011  46012  46013  46014  46015  46016  46017  46018  46019
  46020  46021  46022  46023  46024  46025  46026  46027  46028  46029  46030
  46031  46032  46033  46034  46035  46036  46037  46038  46039  46040  46041
  46042  46043  46044  46045  46046  46047  46048  46049  46050  46051  46052
  46053  46054  46055  46056  46057  46058  46059  46060  46061  46062  46063
  46064  46065  46066  46067  46068  46069  46070  46071  46072  46073  46074
  46075  46076  46077  46078  46079  46080  46081  46082  46083  46084  46085
  46086  46087  46088  46089  46090  46091  46092  46093  46094  46095  46096
  46097  46098  46099  46100  46101  46102  46103  46104  46105  46106  46107
  46108  46109  46110  46111  46112  46113  46114  46115  46116  46117  46118
  46119  46120  46121  46122  46123  46124  46125  46126  46127  46128  46129
  46130  46131  46132  46133  46134  46135  46136  46137  46138  46139  46140
  46141  46142  46143  46144  46145  46146  46147  46148  46149  46150  46151
  46152  46153  46154  46155  46156  46157  46158  46159  46160  46161  46162
  46163  46164  46165  46166  46167  46168  46169  46170  46171  46172  46173
  46174  46175  46176  46177  46178  46179  46180  46181  46182  46183  46184
  46185  46186  46187  46188  46189  46190  46191  46192  46193  46194  46195
  46196  46197  46198  46199  46200  46201  46202  46203  46204  46205  46206
  46207  46208  46209  46210  46211  46212  46213  46214  46215  46216  46217
  46218  46219  46220  46221  46222  46223  46224  46225  46226  46227  46228
  46229  46230  46231  46232  46233  46234  46235  46236  46237  46238  46239
  46240  46241  46242  46243  46244  46245  46246  46247  46248  46249  46250
  46251  46252  46253  46254  46255  46256  46257  46258  46259  46260  46261
  46262  46263  46264  46265  46266  46267  46268  46269  46270  46271  46272
  46273  46274  46275  46276  46277  46278  46279  46280  46281  46282  46283
  46284  46285  46286  46287  46288  46289  46290  46291  46292  46293  46294
  46295  46296  46297  46298  46299  46300  46301  46302  46303  46304  46305
  46306  46307  46308  46309  46310  46311  46312  46313  46314  46315  46316
  46317  46318  46319  46320  46321  46322  46323  46324  46325  46326  46327
  46328  46329  46330  46331  46332  46333  46334  46335  46336  46337  46338
  46339  46340  46341  46342  46343  46344  46345  46346  46347  46348  46349
  46350  46351  46352  46353  46354  46355  46356  46357  46358  46359  46360
  46361  46362  46363  46364  46365  46366  46367  46368  46369  46370  46371
  46372  46373  46374  46375  46376  46377  46378  46379  46380  46381  46382
  46383  46384  46385  46386  46387  46388  46389  46390  46391  46392  46393
  46394  46395  46396  46397  46398  46399  46400  46401  46402  46403  46404
  46405  46406  46407  46408  46409  46410  46411  46412  46413  46414  46415
  46416  46417  46418  46419  46420  46421  46422  46423  46424  46425  46426
  46427  46428  46429  46430  46431  46432  46433  46434  46435  46436  46437
  46438  46439  46440  46441  46442  46443  46444  46445  46446  46447  46448
  46449  46450  46451  46452  46453  46454  46455  46456  46457  46458  46459
  46460  46461  46462  46463  46464  46465  46466  46467  46468  46469  46470
  46471  46472  46473  46474  46475  46476  46477  46478  46479  46480  46481
  46482  46483  46484  46485  46486  46487  46488  46489  46490  46491  46492
  46493  46494  46495  46496  46497  46498  46499  46500  46501  46502  46503
  46504  46505  46506  46507  46508  46509  46510  46511  46512  46513  46514
  46515  46516  46517  46518  46519  46520  46521  46522  46523  46524  46525
  46526  46527  46528  46529  46530  46531  46532  46533  46534  46535  46536
  46537  46538  46539  46540  46541  46542  46543  46544  46545  46546  46547
  46548  46549  46550  46551  46552  46553  46554  46555  46556  46557  46558
  46559  46560  46561  46562  46563  46564  46565  46566  46567  46568  46569
  46570  46571  46572  46573  46574  46575  46576  46577  46578  46579  46580
  46581  46582  46583  46584  46585  46586  46587  46588  46589  46590  46591
  46592  46593  46594  46595  46596  46597  46598  46599  46600  46601  46602
  46603  46604  46605  46606  46607  46608  46609  46610  46611  46612  46613
  46614  46615  46616  46617  46618  46619  46620  46621  46622  46623  46624
  46625  46626  46627  46628  46629  46630  46631  46632  46633  46634  46635
  46636  46637  46638  46639  46640  46641  46642  46643  46644  46645  46646
  46647  46648  46649  46650  46651  46652  46653  46654  46655  46656  46657
  46658  46659  46660  46661  46662  46663  46664  46665  46666  46667  46668
  46669  46670  46671  46672  46673  46674  46675  46676  46677  46678  46679
  46680  46681  46682  46683  46684  46685  46686  46687  46688  46689  46690
  46691  46692  46693  46694  46695  46696  46697  46698  46699  46700  46701
  46702  46703  46704  46705  46706  46707  46708  46709  46710  46711  46712
  46713  46714  46715  46716  46717  46718  46719  46720  46721  46722  46723
  46724  46725  46726  46727  46728  46729  46730  46731  46732  46733  46734
  46735  46736  46737  46738  46739  46740  46741  46742  46743  46744  46745
  46746  46747  46748  46749  46750  46751  46752  46753  46754  46755  46756
  46757  46758  46759  46760  46761  46762  46763  46764  46765  46766  46767
  46768  46769  46770  46771  46772  46773  46774  46775  46776  46777  46778
  46779  46780  46781  46782  46783  46784  46785  46786  46787  46788  46789
  46790  46791  46792  46793  46794  46795  46796  46797  46798  46799  46800
  46801  46802  46803  46804  46805  46806  46807  46808  46809  46810  46811
  46812  46813  46814  46815  46816  46817  46818  46819  46820  46821  46822
  46823  46824  46825  46826  46827  46828  46829  46830  46831  46832  46833
  46834  46835  46836  46837  46838  46839  46840  46841  46842  46843  46844
  46845  46846  46847  46848  46849  46850  46851  46852  46853  46854  46855
  46856  46857  46858  46859  46860  46861  46862  46863  46864  46865  46866
  46867  46868  46869  46870  46871  46872  46873  46874  46875  46876  46877
  46878  46879  46880  46881  46882  46883  46884  46885  46886  46887  46888
  46889  46890  46891  46892  46893  46894  46895  46896  46897  46898  46899
  46900  46901  46902  46903  46904  46905  46906  46907  46908  46909  46910
  46911  46912  46913  46914  46915  46916  46917  46918  46919  46920  46921
  46922  46923  46924  46925  46926  46927  46928  46929  46930  46931  46932
  46933  46934  46935  46936  46937  46938  46939  46940  46941  46942  46943
  46944  46945  46946  46947  46948  46949  46950  46951  46952  46953  46954
  46955  46956  46957  46958  46959  46960  46961  46962  46963  46964  46965
  46966  46967  46968  46969  46970  46971  46972  46973  46974  46975  46976
  46977  46978  46979  46980  46981  46982  46983  46984  46985  46986  46987
  46988  46989  46990  46991  46992  46993  46994  46995  46996  46997  46998
  46999  47000  47001  47002  47003  47004  47005  47006  47007  47008  47009
  47010  47011  47012  47013  47014  47015  47016  47017  47018  47019  47020
  47021  47022  47023  47024  47025  47026  47027  47028  47029  47030  47031
  47032  47033  47034  47035  47036  47037  47038  47039  47040  47041  47042
  47043  47044  47045  47046  47047  47048  47049  47050  47051  47052  47053
  47054  47055  47056  47057  47058  47059  47060  47061  47062  47063  47064
  47065  47066  47067  47068  47069  47070  47071  47072  47073  47074  47075
  47076  47077  47078  47079  47080  47081  47082  47083  47084  47085  47086
  47087  47088  47089  47090  47091  47092  47093  47094  47095  47096  47097
  47098  47099  47100  47101  47102  47103  47104  47105  47106  47107  47108
  47109  47110  47111  47112  47113  47114  47115  47116  47117  47118  47119
  47120  47121  47122  47123  47124  47125  47126  47127  47128  47129  47130
  47131  47132  47133  47134  47135  47136  47137  47138  47139  47140  47141
  47142  47143  47144  47145  47146  47147  47148  47149  47150  47151  47152
  47153  47154  47155  47156  47157  47158  47159  47160  47161  47162  47163
  47164  47165  47166  47167  47168  47169  47170  47171  47172  47173  47174
  47175  47176  47177  47178  47179  47180  47181  47182  47183  47184  47185
  47186  47187  47188  47189  47190  47191  47192  47193  47194  47195  47196
  47197  47198  47199  47200  47201  47202  47203  47204  47205  47206  47207
  47208  47209  47210  47211  47212  47213  47214  47215  47216  47217  47218
  47219  47220  47221  47222  47223  47224  47225  47226  47227  47228  47229
  47230  47231  47232  47233  47234  47235  47236  47237  47238  47239  47240
  47241  47242  47243  47244  47245  47246  47247  47248  47249  47250  47251
  47252  47253  47254  47255  47256  47257  47258  47259  47260  47261  47262
  47263  47264  47265  47266  47267  47268  47269  47270  47271  47272  47273
  47274  47275  47276  47277  47278  47279  47280  47281  47282  47283  47284
  47285  47286  47287  47288  47289  47290  47291  47292  47293  47294  47295
  47296  47297  47298  47299  47300  47301  47302  47303  47304  47305  47306
  47307  47308  47309  47310  47311  47312  47313  47314  47315  47316  47317
  47318  47319  47320  47321  47322  47323  47324  47325  47326  47327  47328
  47329  47330  47331  47332  47333  47334  47335  47336  47337  47338  47339
  47340  47341  47342  47343  47344  47345  47346  47347  47348  47349  47350
  47351  47352  47353  47354  47355  47356  47357  47358  47359  47360  47361
  47362  47363  47364  47365  47366  47367  47368  47369  47370  47371  47372
  47373  47374  47375  47376  47377  47378  47379  47380  47381  47382  47383
  47384  47385  47386  47387  47388  47389  47390  47391  47392  47393  47394
  47395  47396  47397  47398  47399  47400  47401  47402  47403  47404  47405
  47406  47407  47408  47409  47410  47411  47412  47413  47414  47415  47416
  47417  47418  47419  47420  47421  47422  47423  47424  47425  47426  47427
  47428  47429  47430  47431  47432  47433  47434  47435  47436  47437  47438
  47439  47440  47441  47442  47443  47444  47445  47446  47447  47448  47449
  47450  47451  47452  47453  47454  47455  47456  47457  47458  47459  47460
  47461  47462  47463  47464  47465  47466  47467  47468  47469  47470  47471
  47472  47473  47474  47475  47476  47477  47478  47479  47480  47481  47482
  47483  47484  47485  47486  47487  47488  47489  47490  47491  47492  47493
  47494  47495  47496  47497  47498  47499  47500  47501  47502  47503  47504
  47505  47506  47507  47508  47509  47510  47511  47512  47513  47514  47515
  47516  47517  47518  47519  47520  47521  47522  47523  47524  47525  47526
  47527  47528  47529  47530  47531  47532  47533  47534  47535  47536  47537
  47538  47539  47540  47541  47542  47543  47544  47545  47546  47547  47548
  47549  47550  47551  47552  47553  47554  47555  47556  47557  47558  47559
  47560  47561  47562  47563  47564  47565  47566  47567  47568  47569  47570
  47571  47572  47573  47574  47575  47576  47577  47578  47579  47580  47581
  47582  47583  47584  47585  47586  47587  47588  47589  47590  47591  47592
  47593  47594  47595  47596  47597  47598  47599  47600  47601  47602  47603
  47604  47605  47606  47607  47608  47609  47610  47611  47612  47613  47614
  47615  47616  47617  47618  47619  47620  47621  47622  47623  47624  47625
  47626  47627  47628  47629  47630  47631  47632  47633  47634  47635  47636
  47637  47638  47639  47640  47641  47642  47643  47644  47645  47646  47647
  47648  47649  47650  47651  47652  47653  47654  47655  47656  47657  47658
  47659  47660  47661  47662  47663  47664  47665  47666  47667  47668  47669
  47670  47671  47672  47673  47674  47675  47676  47677  47678  47679  47680
  47681  47682  47683  47684  47685  47686  47687  47688  47689  47690  47691
  47692  47693  47694  47695  47696  47697  47698  47699  47700  47701  47702
  47703  47704  47705  47706  47707  47708  47709  47710  47711  47712  47713
  47714  47715  47716  47717  47718  47719  47720  47721  47722  47723  47724
  47725  47726  47727  47728  47729  47730  47731  47732  47733  47734  47735
  47736  47737  47738  47739  47740  47741  47742  47743  47744  47745  47746
  47747  47748  47749  47750  47751  47752  47753  47754  47755  47756  47757
  47758  47759  47760  47761  47762  47763  47764  47765  47766  47767  47768
  47769  47770  47771  47772  47773  47774  47775  47776  47777  47778  47779
  47780  47781  47782  47783  47784  47785  47786  47787  47788  47789  47790
  47791  47792  47793  47794  47795  47796  47797  47798  47799  47800  47801
  47802  47803  47804  47805  47806  47807  47808  47809  47810  47811  47812
  47813  47814  47815  47816  47817  47818  47819  47820  47821  47822  47823
  47824  47825  47826  47827  47828  47829  47830  47831  47832  47833  47834
  47835  47836  47837  47838  47839  47840  47841  47842  47843  47844  47845
  47846  47847  47848  47849  47850  47851  47852  47853  47854  47855  47856
  47857  47858  47859  47860  47861  47862  47863  47864  47865  47866  47867
  47868  47869  47870  47871  47872  47873  47874  47875  47876  47877  47878
  47879  47880  47881  47882  47883  47884  47885  47886  47887  47888  47889
  47890  47891  47892  47893  47894  47895  47896  47897  47898  47899  47900
  47901  47902  47903  47904  47905  47906  47907  47908  47909  47910  47911
  47912  47913  47914  47915  47916  47917  47918  47919  47920  47921  47922
  47923  47924  47925  47926  47927  47928  47929  47930  47931  47932  47933
  47934  47935  47936  47937  47938  47939  47940  47941  47942  47943  47944
  47945  47946  47947  47948  47949  47950  47951  47952  47953  47954  47955
  47956  47957  47958  47959  47960  47961  47962  47963  47964  47965  47966
  47967  47968  47969  47970  47971  47972  47973  47974  47975  47976  47977
  47978  47979  47980  47981  47982  47983  47984  47985  47986  47987  47988
  47989  47990  47991  47992  47993  47994  47995  47996  47997  47998  47999
  48000  48001  48002  48003  48004  48005  48006  48007  48008  48009  48010
  48011  48012  48013  48014  48015  48016  48017  48018  48019  48020  48021
  48022  48023  48024  48025  48026  48027  48028  48029  48030  48031  48032
  48033  48034  48035  48036  48037  48038  48039  48040  48041
[ lower ]
     10     15     17     18     22     25     28     30     32     35     40
     41     42     43     46     50     54     55     57     58     59     60
     70     74     75     76     78     82     90     93     94     95     96
     97     98    100    101    103    107    110    111    116    118    123
    127    128    130    132    144    148    150    151    155    158    159
    161    162    164    165    166    167    168    169    170    171    173
    174    175    176    177    180    183    186    188    192    196    197
    199    201    202    206    208    214    216    217    218    226    228
    230    232    233    234    237    239    240    243    245    247    248
    251    258    260    261    265    266    267    276    285    292    297
    299    300    301    303    305    306    307    308    310    311    316
    318    319    320    322    326    335    337    338    340    345    346
    349    351    352    354    355    360    363    368    369    370    371
    374    375    377    378    381    385    393    397    398    407    412
    416    420    421    427    432    433    437    438    439    442    443
    446    447    450    453    457    458    459    460    461    463    468
    469    471    472    476    480    483    485    491    492    493    495
    497    499    502    507    508    509    510    511    512    514    515
    522    528    529    532    537    539    545    547    549    550    551
    553    555    556    562    564    565    567    568    570    578    579
    580    581    582    583    584    585    586    587    588    590    591
    592    594    595    598    599    600    601    606    608    612    614
    618    620    622    624    625    628    634    636    637    639    640
    643    644    645    647    648    649    651    652    654    659    660
    661    662    664    667    669    670    671    673    680    681    682
    683    705    706    707    708    709    711    712    725    730    732
    733    735    738    741    742    744    746    748    751    756    757
    758    759    763    767    771    772    774    775    776    777    780
    788    792    793    794    796    800    803    809    810    813    814
    815    816    817    818    820    821    823    827    830    831    836
    838    843    847    848    850    852    864    868    870    871    875
    878    879    881    882    884    885    886    887    888    889    890
    891    894    895    896    897    898    899    902    905    909    911
    915    919    920    922    924    925    929    931    937    939    940
    941    950    952    954    955    957    958    959    962    964    965
    968    970    972    973    976    983    985    986    990    991    992
   1001   1010   1018   1023   1025   1026   1027   1029   1031   1033   1034
   1036   1037   1042   1044   1045   1046   1048   1052   1061   1063   1064
   1066   1071   1072   1075   1077   1078   1080   1081   1086   1089   1094
   1095   1096   1097   1100   1101   1103   1104   1107   1111   1119   1123
   1124   1133   1138   1142   1146   1147   1153   1158   1159   1163   1164
   1165   1168   1169   1172   1173   1176   1179   1183   1184   1185   1186
   1187   1189   1194   1195   1197   1198   1202   1206   1209   1211   1217
   1218   1219   1221   1223   1225   1228   1233   1234   1235   1236   1237
   1238   1240   1241   1248   1254   1255   1258   1263   1265   1271   1273
   1275   1276   1277   1279   1281   1282   1288   1290   1291   1293   1294
   1296   1304   1306   1307   1308   1309   1310   1311   1312   1313   1314
   1315   1317   1318   1319   1321   1322   1325   1326   1327   1328   1329
   1334   1336   1340   1342   1346   1348   1350   1352   1353   1356   1358
   1363   1365   1366   1368   1369   1372   1373   1374   1375   1376   1377
   1378   1379   1381   1382   1384   1389   1390   1391   1393   1396   1397
   1398   1399   1400   1402   1409   1410   1411   1433   1434   1435   1437
   1441   1442   1453   1458   1460   1461   1465   1468   1469   1471   1473
   1475   1478   1483   1484   1485   1486   1489   1493   1497   1498   1500
   1501   1502   1503   1513   1517   1518   1519   1521   1525   1533   1536
   1537   1538   1539   1540   1541   1543   1544   1546   1550   1553   1554
   1559   1561   1566   1570   1571   1573   1575   1587   1591   1593   1594
   1598   1601   1602   1604   1605   1607   1608   1609   1610   1611   1612
   1613   1614   1616   1617   1618   1619   1620   1623   1626   1629   1631
   1635   1639   1640   1642   1644   1645   1649   1651   1657   1659   1660
   1661   1669   1671   1673   1675   1676   1677   1680   1682   1683   1686
   1688   1690   1691   1694   1701   1703   1704   1708   1709   1710   1719
   1728   1735   1740   1742   1743   1744   1746   1748   1749   1750   1751
   1753   1754   1759   1761   1762   1763   1765   1769   1778   1780   1781
   1783   1788   1789   1792   1794   1795   1797   1798   1803   1806   1811
   1812   1813   1814   1817   1818   1820   1821   1824   1827   1829   1837
   1841   1842   1851   1856   1860   1864   1865   1871   1876   1877   1881
   1882   1883   1886   1887   1890   1891   1894   1897   1901   1902   1903
   1904   1905   1907   1912   1913   1915   1916   1920   1924   1927   1929
   1935   1936   1937   1939   1941   1943   1946   1951   1952   1953   1954
   1955   1956   1958   1959   1966   1972   1973   1975   1976   1981   1983
   1989   1991   1993   1994   1995   1997   1999   2000   2006   2008   2009
   2011   2012   2014   2022   2024   2025   2026   2027   2028   2029   2030
   2031   2032   2034   2035   2036   2038   2039   2042   2043   2044   2045
   2046   2051   2053   2057   2059   2063   2065   2067   2069   2070   2073
   2079   2081   2082   2084   2085   2087   2088   2089   2090   2092   2093
   2094   2095   2097   2098   2100   2105   2106   2107   2108   2110   2114
   2115   2116   2117   2119   2125   2126   2127   2128   2150   2151   2152
   2153   2154   2155   2156   2157   2158   2161   2173   2178   2180   2181
   2183   2186   2187   2189   2190   2192   2194   2196   2199   2204   2205
   2206   2207   2211   2215   2219   2220   2222   2223   2224   2225   2228
   2236   2240   2241   2242   2244   2248   2251   2258   2261   2262   2263
   2264   2265   2266   2268   2269   2271   2275   2278   2279   2284   2286
   2291   2295   2296   2298   2300   2312   2316   2318   2319   2323   2326
   2327   2329   2330   2332   2333   2334   2336   2337   2338   2339   2342
   2343   2344   2345   2346   2347   2350   2353   2357   2359   2363   2367
   2368   2370   2372   2373   2377   2379   2385   2387   2388   2389   2398
   2400   2402   2403   2405   2406   2407   2410   2412   2413   2416   2418
   2420   2421   2424   2431   2433   2434   2438   2439   2440   2449   2458
   2466   2471   2473   2474   2475   2477   2479   2480   2481   2482   2484
   2485   2490   2492   2493   2494   2496   2500   2509   2511   2512   2514
   2519   2520   2523   2525   2526   2528   2529   2534   2537   2542   2543
   2544   2545   2548   2549   2551   2552   2555   2558   2560   2568   2572
   2579   2582   2587   2591   2595   2596   2602   2607   2608   2612   2613
   2614   2617   2618   2621   2622   2625   2628   2632   2633   2634   2635
   2636   2638   2643   2644   2646   2647   2651   2655   2658   2660   2666
   2667   2668   2670   2672   2674   2677   2682   2683   2684   2685   2686
   2687   2689   2690   2697   2703   2704   2707   2712   2714   2720   2722
   2724   2725   2728   2730   2731   2737   2739   2740   2742   2743   2745
   2753   2755   2756   2757   2758   2759   2760   2761   2762   2763   2764
   2766   2767   2768   2771   2774   2775   2776   2777   2778   2783   2785
   2789   2791   2795   2797   2799   2801   2802   2805   2807   2812   2814
   2815   2816   2817   2820   2821   2822   2823   2825   2826   2827   2829
   2830   2836   2837   2838   2842   2843   2844   2845   2846   2847   2849
   2856   2857   2858   2859   2879   2880   2881   2882   2886   2888   2889
   2892   2894   2895   2898   2901   2903   2904   2905   2906   2908   2910
   2911   2914   2917   2919   2920   2921   2922   2923   2924   2938   2943
   2945   2946   2950   2953   2956   2958   2960   2963   2968   2969   2970
   2971   2974   2978   2982   2983   2985   2986   2987   2988   2998   3002
   3003   3004   3006   3010   3018   3021   3022   3023   3024   3025   3026
   3028   3029   3031   3035   3038   3039   3044   3046   3051   3055   3056
   3058   3060   3072   3076   3078   3079   3083   3086   3087   3089   3090
   3092   3093   3094   3095   3096   3097   3098   3099   3101   3102   3103
   3104   3105   3108   3111   3114   3116   3120   3124   3125   3127   3129
   3130   3134   3136   3142   3144   3145   3146   3154   3156   3158   3160
   3161   3162   3165   3167   3168   3171   3173   3175   3176   3179   3186
   3188   3189   3193   3194   3195   3204   3213   3220   3225   3227   3228
   3229   3231   3233   3234   3235   3236   3238   3239   3244   3246   3247
   3248   3250   3254   3263   3265   3266   3268   3273   3274   3277   3279
   3280   3282   3283   3288   3291   3296   3297   3298   3299   3302   3303
   3305   3306   3309   3313   3321   3325   3326   3335   3340   3344   3348
   3349   3355   3360   3361   3365   3366   3367   3370   3371   3374   3375
   3378   3381   3385   3386   3387   3388   3389   3391   3396   3397   3399
   3400   3404   3408   3411   3413   3419   3420   3421   3423   3425   3427
   3430   3435   3436   3437   3438   3439   3440   3442   3443   3450   3456
   3457   3460   3465   3467   3473   3475   3477   3478   3479   3481   3483
   3484   3490   3492   3493   3495   3496   3498   3506   3507   3508   3509
   3510   3511   3512   3513   3514   3515   3516   3518   3519   3520   3522
   3523   3526   3527   3528   3529   3534   3536   3540   3542   3546   3548
   3550   3552   3553   3556   3562   3564   3565   3567   3568   3571   3572
   3573   3575   3576   3577   3579   3580   3582   3587   3588   3589   3590
   3592   3595   3597   3598   3599   3601   3608   3609   3610   3611   3633
   3634   3635   3636   3637   3639   3640   3653   3658   3660   3661   3663
   3666   3669   3670   3672   3674   3676   3679   3684   3685   3686   3687
   3691   3695   3699   3700   3702   3703   3704   3705   3708   3716   3720
   3721   3722   3724   3728   3731   3738   3741   3742   3743   3744   3745
   3746   3748   3749   3751   3755   3758   3759   3764   3766   3771   3775
   3776   3778   3780   3792   3796   3798   3799   3803   3806   3807   3809
   3810   3812   3813   3814   3815   3816   3817   3818   3819   3822   3823
   3824   3825   3826   3827   3830   3833   3837   3839   3843   3847   3848
   3850   3852   3853   3857   3859   3865   3867   3868   3869   3878   3880
   3882   3883   3885   3886   3887   3890   3892   3893   3896   3898   3900
   3901   3904   3911   3913   3914   3918   3919   3920   3929   3938   3946
   3951   3953   3954   3955   3957   3959   3961   3962   3964   3965   3970
   3972   3973   3974   3976   3980   3989   3991   3992   3994   3999   4000
   4003   4005   4006   4008   4009   4014   4017   4022   4023   4024   4025
   4028   4029   4031   4032   4035   4039   4047   4051   4052   4061   4064
   4066   4070   4074   4075   4081   4086   4087   4091   4092   4093   4096
   4097   4100   4101   4104   4107   4111   4112   4113   4114   4115   4117
   4122   4123   4125   4126   4130   4134   4137   4139   4145   4146   4147
   4149   4151   4153   4156   4161   4162   4163   4164   4165   4166   4168
   4169   4176   4182   4183   4185   4186   4191   4193   4199   4201   4203
   4204   4205   4207   4209   4210   4216   4218   4219   4221   4222   4224
   4232   4234   4235   4236   4237   4238   4239   4240   4241   4242   4243
   4245   4246   4247   4249   4250   4253   4254   4255   4256   4257   4262
   4264   4268   4270   4274   4276   4278   4280   4281   4284   4286   4291
   4293   4294   4296   4297   4300   4301   4302   4303   4304   4305   4306
   4307   4309   4310   4312   4317   4318   4319   4321   4324   4325   4326
   4327   4328   4330   4337   4338   4339   4361   4362   4363   4365   4369
   4370   4381   4386   4388   4389   4393   4394   4396   4397   4399   4401
   4403   4406   4411   4412   4413   4414   4417   4421   4425   4426   4428
   4429   4430   4431   4441   4445   4446   4447   4449   4453   4461   4464
   4465   4466   4467   4468   4469   4471   4472   4474   4478   4481   4482
   4487   4489   4494   4498   4499   4501   4503   4515   4519   4521   4522
   4526   4529   4530   4532   4533   4535   4536   4537   4538   4539   4540
   4541   4542   4544   4545   4546   4547   4548   4551   4554   4557   4559
   4563   4567   4568   4570   4572   4573   4577   4579   4585   4587   4588
   4589   4597   4599   4601   4603   4604   4605   4608   4610   4611   4614
   4616   4618   4619   4622   4629   4631   4632   4636   4637   4638   4647
   4656   4663   4668   4670   4671   4672   4674   4676   4677   4678   4679
   4681   4682   4687   4689   4690   4691   4693   4697   4706   4708   4709
   4711   4716   4717   4720   4722   4723   4725   4726   4731   4734   4739
   4740   4741   4742   4745   4746   4748   4749   4752   4755   4757   4765
   4769   4770   4779   4784   4788   4792   4793   4799   4804   4805   4809
   4810   4811   4814   4815   4818   4819   4822   4825   4829   4830   4831
   4832   4833   4835   4840   4841   4843   4844   4848   4852   4855   4857
   4863   4864   4865   4867   4869   4871   4874   4879   4880   4881   4882
   4883   4884   4886   4887   4894   4900   4901   4903   4904   4909   4911
   4917   4919   4921   4922   4923   4925   4927   4928   4934   4936   4937
   4939   4940   4942   4950   4951   4952   4953   4954   4955   4956   4957
   4958   4959   4960   4962   4963   4964   4966   4967   4970   4971   4972
   4973   4974   4979   4981   4985   4987   4991   4993   4995   4997   4998
   5001   5007   5009   5010   5012   5013   5015   5016   5017   5018   5020
   5021   5022   5023   5025   5026   5028   5033   5034   5035   5036   5038
   5042   5043   5044   5045   5047   5053   5054   5055   5056   5078   5079
   5080   5081   5082   5083   5084   5085   5086   5089   5101   5106   5108
   5109   5111   5114   5115   5117   5118   5120   5122   5124   5127   5132
   5133   5134   5135   5139   5143   5147   5148   5150   5151   5152   5153
   5156   5164   5168   5169   5170   5172   5176   5179   5186   5189   5190
   5191   5192   5193   5194   5196   5197   5199   5203   5206   5207   5212
   5214   5219   5223   5224   5226   5228   5240   5244   5246   5251   5254
   5255   5257   5258   5260   5261   5262   5264   5265   5266   5267   5270
   5271   5272   5273   5274   5275   5278   5281   5285   5287   5291   5295
   5296   5298   5300   5301   5305   5307   5313   5315   5316   5317   5326
   5328   5330   5331   5333   5334   5335   5338   5340   5341   5344   5346
   5348   5349   5352   5359   5361   5362   5366   5367   5368   5377   5386
   5394   5399   5401   5402   5403   5405   5407   5408   5409   5410   5412
   5413   5418   5420   5421   5422   5424   5428   5437   5439   5440   5442
   5447   5448   5451   5453   5454   5456   5457   5462   5465   5470   5471
   5472   5473   5476   5477   5479   5480   5483   5486   5488   5496   5500
   5501   5507   5510   5515   5519   5523   5524   5530   5535   5536   5540
   5541   5542   5545   5546   5549   5550   5553   5556   5560   5561   5562
   5563   5564   5566   5571   5572   5574   5575   5579   5583   5586   5588
   5594   5595   5596   5598   5600   5602   5605   5610   5611   5612   5613
   5614   5615   5617   5618   5625   5631   5632   5635   5640   5642   5648
   5650   5652   5653   5656   5658   5659   5665   5667   5668   5670   5671
   5673   5681   5683   5684   5685   5686   5687   5688   5689   5690   5691
   5692   5694   5695   5696   5699   5702   5703   5704   5705   5706   5711
   5713   5717   5719   5723   5725   5727   5729   5730   5733   5735   5740
   5742   5743   5744   5745   5748   5749   5750   5751   5753   5754   5755
   5757   5758   5764   5765   5766   5770   5771   5772   5773   5774   5775
   5777   5784   5785   5786   5787   5807   5808   5809   5810   5814   5816
   5817   5820   5822   5823   5826   5829   5831   5832   5833   5834   5836
   5838   5839   5842   5845   5847   5848   5849   5850   5851   5852   5866
   5871   5873   5874   5878   5881   5884   5886   5888   5891   5896   5897
   5898   5899   5902   5906   5910   5911   5913   5914   5915   5916   5926
   5930   5931   5932   5934   5938   5945   5946   5949   5950   5951   5952
   5953   5954   5956   5957   5959   5963   5966   5967   5972   5974   5979
   5983   5984   5986   5988   6000   6004   6006   6007   6011   6014   6015
   6017   6018   6020   6021   6022   6023   6024   6025   6026   6027   6029
   6030   6031   6032   6033   6036   6039   6042   6044   6048   6052   6053
   6055   6057   6058   6062   6064   6070   6072   6073   6074   6082   6084
   6086   6088   6089   6090   6093   6095   6096   6099   6101   6103   6104
   6107   6114   6116   6117   6121   6122   6123   6132   6141   6148   6153
   6155   6156   6157   6159   6161   6162   6163   6164   6166   6167   6172
   6174   6175   6176   6178   6182   6191   6193   6194   6196   6201   6202
   6205   6207   6208   6210   6211   6216   6219   6224   6225   6226   6227
   6230   6231   6233   6234   6237   6241   6249   6253   6254   6263   6268
   6272   6276   6277   6283   6288   6289   6293   6294   6295   6298   6299
   6302   6303   6306   6309   6313   6314   6315   6316   6317   6319   6324
   6325   6327   6328   6332   6336   6339   6341   6347   6348   6349   6351
   6353   6355   6358   6363   6364   6365   6366   6367   6368   6370   6371
   6378   6384   6385   6388   6393   6395   6401   6403   6405   6406   6407
   6409   6411   6412   6418   6420   6421   6423   6424   6426   6434   6435
   6436   6437   6438   6439   6440   6441   6442   6443   6444   6446   6447
   6448   6450   6451   6454   6455   6456   6457   6462   6464   6468   6470
   6474   6476   6478   6480   6481   6484   6490   6492   6493   6495   6496
   6499   6500   6501   6503   6504   6505   6507   6508   6510   6515   6516
   6517   6518   6520   6523   6525   6526   6527   6529   6536   6537   6538
   6539   6561   6562   6563   6564   6565   6567   6568   6581   6586   6588
   6589   6591   6594   6597   6598   6600   6602   6604   6607   6612   6613
   6614   6615   6619   6623   6627   6628   6630   6631   6632   6633   6636
   6644   6648   6649   6650   6652   6656   6659   6666   6669   6670   6671
   6672   6673   6674   6676   6677   6679   6683   6686   6687   6692   6694
   6699   6703   6704   6706   6708   6720   6724   6726   6727   6731   6734
   6735   6737   6738   6740   6741   6742   6743   6744   6745   6746   6747
   6750   6751   6752   6753   6754   6755   6758   6761   6765   6767   6771
   6775   6776   6778   6780   6781   6785   6787   6793   6795   6796   6797
   6806   6808   6810   6811   6813   6814   6815   6818   6820   6821   6824
   6826   6828   6829   6832   6839   6841   6842   6846   6847   6848   6857
   6866   6874   6879   6881   6882   6883   6885   6887   6889   6890   6892
   6893   6898   6900   6901   6902   6904   6908   6917   6919   6920   6922
   6927   6928   6931   6933   6934   6936   6937   6942   6945   6950   6951
   6952   6953   6956   6957   6959   6960   6963   6967   6975   6979   6980
   6989   6994   6998   7002   7003   7009   7014   7015   7019   7020   7021
   7024   7025   7028   7029   7032   7035   7039   7040   7041   7042   7043
   7045   7050   7051   7053   7054   7058   7062   7065   7067   7073   7074
   7075   7077   7079   7081   7084   7089   7090   7091   7092   7093   7094
   7096   7097   7104   7110   7111   7114   7119   7121   7127   7129   7131
   7132   7133   7135   7137   7138   7144   7146   7147   7149   7150   7152
   7160   7162   7163   7164   7165   7166   7167   7168   7169   7170   7171
   7173   7174   7175   7177   7178   7181   7182   7183   7184   7185   7190
   7192   7196   7198   7202   7204   7206   7208   7209   7212   7214   7219
   7221   7222   7224   7225   7228   7229   7230   7231   7232   7233   7234
   7235   7237   7238   7240   7245   7246   7247   7249   7252   7253   7254
   7255   7256   7258   7265   7266   7267   7289   7290   7291   7293   7297
   7298   7309   7314   7316   7317   7321   7322   7324   7325   7327   7329
   7331   7334   7339   7340   7341   7342   7345   7349   7353   7354   7356
   7357   7358   7359   7369   7373   7374   7375   7377   7381   7389   7392
   7393   7394   7395   7396   7397   7399   7400   7402   7406   7409   7410
   7415   7417   7422   7426   7427   7429   7431   7443   7447   7449   7450
   7454   7457   7458   7460   7461   7463   7464   7465   7466   7467   7468
   7469   7470   7472   7473   7474   7475   7476   7479   7482   7485   7487
   7491   7495   7496   7498   7500   7501   7505   7507   7513   7515   7516
   7517   7525   7527   7529   7531   7532   7533   7536   7538   7539   7542
   7544   7546   7547   7550   7557   7559   7560   7564   7565   7566   7575
   7584   7591   7596   7598   7599   7600   7602   7604   7605   7606   7607
   7609   7610   7615   7617   7618   7619   7621   7625   7634   7636   7637
   7639   7644   7645   7648   7650   7651   7653   7654   7659   7662   7667
   7668   7669   7670   7673   7674   7676   7677   7680   7683   7685   7693
   7697   7698   7707   7712   7716   7720   7721   7727   7732   7733   7737
   7738   7739   7742   7743   7746   7747   7750   7753   7757   7758   7759
   7760   7761   7763   7768   7769   7771   7772   7776   7780   7783   7785
   7791   7792   7793   7795   7797   7799   7802   7807   7808   7809   7810
   7811   7812   7814   7815   7822   7828   7829   7831   7832   7837   7839
   7845   7847   7849   7850   7851   7853   7855   7856   7862   7864   7865
   7867   7868   7870   7878   7880   7881   7882   7883   7884   7885   7886
   7887   7888   7890   7891   7892   7894   7895   7898   7899   7900   7901
   7902   7907   7909   7913   7915   7919   7921   7923   7925   7926   7929
   7935   7937   7938   7940   7941   7943   7944   7945   7946   7948   7949
   7950   7951   7953   7954   7956   7961   7962   7963   7964   7966   7970
   7971   7972   7973   7975   7981   7982   7983   7984   8006   8007   8008
   8009   8010   8011   8012   8013   8014   8017   8029   8034   8036   8037
   8039   8042   8043   8045   8046   8048   8050   8052   8055   8060   8061
   8062   8063   8067   8071   8075   8076   8078   8079   8080   8081   8084
   8088   8092   8096   8097   8098   8100   8104   8107   8114   8117   8118
   8119   8120   8121   8122   8124   8125   8127   8131   8134   8135   8140
   8142   8147   8151   8152   8154   8156   8168   8172   8174   8179   8182
   8183   8185   8186   8188   8189   8190   8192   8193   8194   8195   8198
   8199   8200   8201   8202   8203   8206   8209   8213   8215   8219   8223
   8224   8226   8228   8229   8233   8235   8241   8243   8244   8245   8254
   8256   8258   8259   8261   8262   8263   8266   8268   8269   8272   8274
   8276   8277   8280   8287   8289   8290   8294   8295   8296   8305   8314
   8322   8327   8329   8330   8331   8333   8335   8336   8337   8338   8340
   8341   8346   8348   8349   8350   8352   8356   8365   8367   8368   8370
   8375   8376   8379   8381   8382   8384   8385   8390   8393   8398   8399
   8400   8401   8404   8405   8407   8408   8411   8414   8416   8424   8428
   8429   8435   8438   8443   8447   8451   8452   8458   8463   8464   8468
   8469   8470   8473   8474   8477   8478   8481   8484   8488   8489   8490
   8491   8492   8494   8499   8500   8502   8507   8511   8514   8516   8522
   8523   8524   8526   8528   8530   8533   8538   8539   8540   8541   8542
   8543   8545   8546   8553   8559   8560   8563   8568   8570   8576   8578
   8580   8581   8584   8586   8587   8593   8595   8596   8598   8599   8601
   8609   8611   8612   8613   8614   8615   8616   8617   8618   8619   8620
   8622   8623   8624   8627   8630   8631   8632   8633   8634   8639   8641
   8645   8647   8651   8653   8655   8657   8658   8661   8663   8668   8670
   8671   8672   8673   8676   8677   8678   8679   8681   8682   8683   8685
   8686   8692   8693   8694   8698   8699   8700   8701   8702   8703   8705
   8712   8713   8714   8715   8735   8736   8737   8738   8742   8744   8745
   8748   8750   8751   8754   8757   8759   8760   8761   8762   8764   8766
   8767   8770   8773   8775   8776   8777   8778   8779   8780   8794   8799
   8801   8802   8806   8809   8810   8812   8814   8816   8819   8824   8825
   8826   8827   8830   8834   8838   8839   8841   8842   8843   8844   8854
   8858   8859   8860   8862   8866   8874   8877   8878   8879   8880   8881
   8882   8884   8885   8887   8891   8894   8895   8900   8902   8907   8911
   8912   8914   8916   8928   8932   8934   8935   8939   8942   8943   8945
   8946   8948   8949   8950   8951   8952   8953   8954   8955   8957   8958
   8959   8960   8961   8964   8967   8970   8972   8976   8980   8981   8983
   8985   8986   8990   8992   8998   9000   9001   9002   9010   9012   9014
   9016   9017   9018   9021   9023   9024   9027   9029   9031   9032   9035
   9042   9044   9045   9049   9050   9051   9060   9069   9076   9081   9083
   9084   9085   9087   9089   9090   9091   9092   9094   9095   9100   9102
   9103   9104   9106   9110   9119   9121   9122   9124   9129   9130   9133
   9135   9136   9138   9139   9144   9147   9152   9153   9154   9155   9158
   9159   9161   9162   9165   9169   9177   9181   9182   9191   9196   9200
   9204   9205   9211   9216   9217   9221   9222   9223   9226   9227   9230
   9231   9234   9237   9241   9242   9243   9244   9245   9247   9252   9253
   9255   9256   9260   9264   9267   9269   9275   9276   9277   9279   9281
   9283   9286   9291   9292   9293   9294   9295   9296   9298   9299   9306
   9312   9313   9316   9321   9323   9329   9331   9333   9334   9335   9337
   9339   9340   9346   9348   9349   9351   9352   9354   9362   9363   9364
   9365   9366   9367   9368   9369   9370   9371   9372   9374   9375   9376
   9378   9379   9382   9383   9384   9385   9390   9392   9396   9398   9402
   9404   9406   9408   9409   9412   9418   9420   9421   9423   9424   9427
   9428   9429   9431   9432   9433   9435   9436   9438   9443   9444   9445
   9446   9448   9451   9453   9454   9455   9457   9464   9465   9466   9467
   9489   9490   9491   9492   9493   9495   9496   9509   9514   9516   9517
   9519   9522   9525   9526   9528   9530   9532   9535   9540   9541   9542
   9543   9547   9551   9555   9556   9558   9559   9560   9561   9564   9572
   9576   9577   9578   9580   9584   9587   9594   9597   9598   9599   9600
   9601   9602   9604   9605   9607   9611   9614   9615   9620   9622   9627
   9631   9632   9634   9636   9648   9652   9654   9655   9659   9662   9663
   9665   9666   9668   9669   9670   9671   9672   9673   9674   9675   9678
   9679   9680   9681   9682   9683   9686   9689   9693   9695   9699   9703
   9704   9706   9708   9709   9713   9715   9721   9723   9724   9725   9734
   9736   9738   9739   9741   9742   9743   9746   9748   9749   9752   9754
   9756   9757   9760   9767   9769   9770   9774   9775   9776   9785   9794
   9802   9807   9809   9810   9811   9813   9815   9817   9818   9820   9821
   9826   9828   9829   9830   9832   9836   9845   9847   9848   9850   9855
   9856   9859   9861   9862   9864   9865   9870   9873   9878   9879   9880
   9881   9884   9885   9887   9888   9891   9895   9903   9907   9908   9917
   9920   9922   9926   9930   9931   9937   9942   9943   9947   9948   9949
   9952   9953   9956   9957   9960   9963   9967   9968   9969   9970   9971
   9973   9978   9979   9981   9982   9986   9990   9993   9995  10001  10002
  10003  10005  10007  10009  10012  10017  10018  10019  10020  10021  10022
  10024  10025  10032  10038  10039  10042  10047  10049  10055  10057  10059
  10060  10061  10063  10065  10066  10072  10074  10075  10077  10078  10080
  10088  10090  10091  10092  10093  10094  10095  10096  10097  10098  10099
  10101  10102  10103  10105  10106  10109  10110  10111  10112  10113  10118
  10120  10124  10126  10130  10132  10134  10136  10137  10140  10142  10147
  10149  10150  10152  10153  10156  10157  10158  10159  10160  10161  10162
  10163  10165  10166  10168  10173  10174  10175  10177  10180  10181  10182
  10183  10184  10186  10193  10194  10195  10217  10218  10219  10221  10225
  10226  10237  10242  10244  10245  10249  10252  10253  10255  10257  10259
  10262  10267  10268  10269  10270  10273  10277  10281  10282  10284  10285
  10286  10287  10293  10297  10301  10302  10303  10305  10309  10317  10320
  10321  10322  10323  10324  10325  10327  10328  10330  10334  10337  10338
  10343  10345  10350  10354  10355  10357  10359  10371  10375  10377  10378
  10382  10385  10386  10388  10389  10391  10392  10393  10394  10395  10396
  10397  10398  10400  10401  10402  10403  10404  10407  10410  10413  10415
  10419  10423  10424  10426  10428  10429  10433  10435  10441  10443  10444
  10445  10453  10455  10457  10459  10460  10461  10464  10466  10467  10470
  10472  10474  10475  10478  10485  10487  10488  10492  10493  10494  10503
  10512  10519  10524  10526  10527  10528  10530  10532  10533  10534  10535
  10537  10538  10543  10545  10546  10547  10549  10553  10562  10564  10565
  10567  10572  10573  10576  10578  10579  10581  10582  10587  10590  10595
  10596  10597  10598  10601  10602  10604  10605  10608  10611  10613  10621
  10625  10626  10635  10640  10644  10648  10649  10655  10660  10661  10665
  10666  10667  10670  10671  10674  10675  10678  10681  10685  10686  10687
  10688  10689  10691  10696  10697  10699  10700  10704  10708  10711  10713
  10719  10720  10721  10723  10725  10727  10730  10735  10736  10737  10738
  10739  10740  10742  10743  10750  10756  10757  10759  10760  10765  10767
  10773  10775  10777  10778  10779  10781  10783  10784  10790  10792  10793
  10795  10796  10798  10806  10808  10809  10810  10811  10812  10813  10814
  10815  10816  10818  10819  10820  10822  10823  10826  10827  10828  10829
  10830  10835  10837  10841  10843  10847  10849  10851  10853  10854  10857
  10863  10865  10866  10868  10869  10871  10872  10873  10874  10876  10877
  10878  10879  10881  10882  10884  10889  10890  10891  10892  10894  10898
  10899  10900  10901  10903  10909  10910  10911  10912  10934  10935  10936
  10937  10938  10939  10940  10941  10942  10945  10957  10962  10964  10965
  10967  10970  10971  10973  10974  10976  10978  10980  10983  10988  10989
  10990  10991  10995  10999  11003  11004  11006  11007  11008  11009  11012
  11020  11024  11025  11026  11028  11032  11035  11042  11045  11046  11047
  11048  11049  11050  11052  11053  11055  11059  11062  11063  11068  11070
  11075  11079  11080  11082  11084  11096  11100  11102  11103  11107  11110
  11111  11113  11114  11116  11117  11118  11120  11121  11122  11123  11126
  11127  11128  11129  11130  11131  11134  11137  11141  11143  11147  11151
  11152  11154  11156  11157  11161  11163  11169  11171  11172  11173  11182
  11184  11186  11187  11189  11190  11191  11194  11196  11197  11200  11202
  11204  11205  11208  11215  11217  11218  11222  11223  11224  11233  11242
  11250  11255  11257  11258  11259  11261  11263  11264  11265  11266  11268
  11269  11274  11276  11277  11278  11280  11284  11293  11295  11296  11298
  11303  11304  11307  11309  11310  11312  11313  11318  11321  11326  11327
  11328  11329  11332  11333  11335  11336  11339  11342  11344  11352  11356
  11363  11366  11371  11375  11379  11380  11386  11391  11392  11396  11397
  11398  11401  11402  11405  11406  11409  11412  11416  11417  11418  11419
  11420  11422  11427  11428  11430  11435  11439  11442  11444  11450  11451
  11452  11454  11456  11458  11461  11466  11467  11468  11469  11470  11471
  11473  11474  11481  11487  11488  11491  11496  11498  11504  11506  11508
  11509  11512  11514  11515  11521  11523  11524  11526  11527  11529  11537
  11539  11540  11541  11542  11543  11544  11545  11546  11547  11548  11550
  11551  11552  11555  11558  11559  11560  11561  11562  11567  11569  11573
  11575  11579  11581  11583  11585  11586  11589  11591  11596  11598  11599
  11600  11601  11604  11605  11606  11607  11609  11610  11611  11613  11614
  11620  11621  11622  11626  11627  11628  11629  11630  11631  11633  11640
  11641  11642  11643  11663  11664  11665  11666  11670  11672  11673  11676
  11678  11679  11682  11685  11687  11688  11689  11690  11692  11694  11695
  11698  11701  11703  11704  11705  11706  11707  11708
