[ pull_layer ]
 11721 11722 11725 11727 11728 11729 11730 11731 11759 11775 11776 11777 11778
 11779 11780 11784 11785 11786 11787 11788 11789 11790 11791 11792 11793 11794
 11795 11796 11797 11798 11799 11800 11801 11823 11824 11825 11826 11827 11828
 11829 11830 11831 11832 11833 11834 11835 11836 11837 11838 11839 11840 11841
 11842 11843 11912 11913 11914 11915 11916 11917 11918 11919 11920 11921 11922
 11923 11924 11925 11926 11927 11928 11929 11930 11931 11932 11933 11934 11935
 11936 11937 11938 11939 11940 11941 11942 11943 11944 11945 11946 11947 11948
 11949 11950 11951 11952 11953 11954 11955 11956 11957 11958 11959 11960 11961
 11962 11963 11964 11965 11966 11967 11968 11969 11970 11971 11972 11973 11974
 11975 11976 11977 11978 11979 11980 11981 11982 11983 11984 11985 11986 11987
 11988 11989 11990 11991 11992 11993 11994 11995 11996 11997 11998 11999 12000
 12001 12002 12003 12004 12005 12006 12007 12008 12009 12010 12011 12012 12013
 12014 12015 12016 12017 12018 12019 12020 12021 12022 12023 12024 12025 12026
 12027 12028 12029 12030 12031 12032 12033 12034 12035 12036 12037 12038 12039
 12040 12041 12042 12043 12044 12045 12046 12047 12048 12049 12050 12051 12052
 12053 12054 12055 12056 12057 12058 12059 12060 12061 12062 12063 12111 12112
 12113 12114 12115 12116 12117 12118 12119 12120 12121 12122 12123 12124 12125
 12126 12127 12128 12129 12130 12131 12132 12133 12134 12135 12136 12151 12152
 12153 12154 12155 12156 12157 12227 12229 12233 12236 12237 12245 12247 12248
 12254 12255 12256 12257 12258 12259 12260 12261 12262 12263 12264 12265 12266
 12267 12268 12269 12270 12271 12272 12273 12274 12275 12276 12277 12278 12279
 12280 12281 12282 12283 12284 12285 12286 12287 12288 12289 12290 12291 12292
 12293 12294 12295 12296 12297 12298 12299 12300 12301 12302 12303 12304 12305
 12306 12307 12310 12318 12319 12320 12321 12322 12323 12324 12325 12326 12327
 12328 12329 12330 12331 12332 12333 12334 12335 12336 12337 12338 12339 12340
 12341 12342 12343 12344 12345 12346 12347 12348 12349 12350 12351 12352 12353
 12354 12355 12356 12357 12358 12359 12360 12361 12362 12363 12364 12365 12366
 12367 12368 12369 12370 12371 12372 12373 12374 12375 12376 12377 12378 12379
 12380 12381 12382 12383 12384 12385 12386 12387 12388 12389 12390 12391 12392
 12393 12394 12395 12396 12397 12398 12399 12400 12401 12402 12403 12404 12405
 12406 12407 12408 12409 12410 12411 12412 12413 12414 12415 12416 12417 12418
 12419 12420 12421 12422 12423 12424 12425 12426 12427 12428 12429 12430 12431
 12432 12433 12434 12435 12436 12437 12438 12439 12440 12441 12442 12443 12444
 12445 12446 12447 12448 12449 12450 12451 12452 12453 12454 12455 12456 12457
 12458 12459 12460 12461 12462 12463 12464 12465 12466 12467 12468 12469 12470
 12471 12472 12473 12474 12475 12476 12477 12478 12479 12480 12481 12482 12483
 12484 12485 12486 12487 12488 12489 12490 12491 12492 12493 12494 12495 12496
 12497 12498 12499 12500 12501 12502 12503 12504 12505 12506 12507 12508 12509
 12510 12511 12512 12513 12514 12515 12516 12517 12518 12519 12520 12521 12522
 12523 12524 12525 12526 12527 12528 12529 12530 12531 12532 12533 12534 12535
 12536 12537 12538 12539 12540 12541 12542 12543 12544 12545 12546 12547 12548
 12549 12550 12551 12552 12553 12554 12555 12556 12557 12558 12559 12560 12561
 12562 12563 12564 12565 12566 12567 12568 12569 12570 12571 12572 12573 12574
 12575 12576 12577 12578 12579 12580 12581 12582 12583 12584 12585 12586 12587
 12588 12589 12590 12591 12592 12593 12594 12595 12596 12597 12598 12599 12600
 12601 12602 12603 12604 12605 12606 12607 12608 12609 12610 12611 12612 12613
 12614 12615 12616 12617 12618 12619 12620 12621 12622 12623 12624 12625 12626
 12627 12628 12629 12630 12631 12632 12633 12634 12635 12636 12637 12638 12639
 12640 12641 12642 12643 12644 12645 12646 12647 12648 12649 12650 12651 12652
 12653 12654 12655 12656 12657 12658 12659 12660 12661 12662 12663 12664 12665
 12666 12667 12668 12669 12670 12671 12672 12673 12674 12675 12676 12677 12678
 12679 12680 12681 12682 12683 12684 12685 12686 12687 12688 12689 12690 12691
 12692 12693 12694 12695 12696 12697 12698 12699 12700 12701 12709 12710 12711
 12712 12713 12714 12715 12716 12717 12718 12719 12720 12721 12722 12723 12724
 12725 12726 12727 12728 12729 12730 12731 12732 12733 12734 12735 12736 12737
 12738 12739 12740 12741 12742 12743 12744 12745 12746 12747 12748 12749 12750
 12751 12752 12753 12754 12755 12756 12757 12758 12759 12760 12782 12783 12784
 12785 12786 12787 12788 12789 12790 12791 12792 12793 12794 12795 12796 12797
 12798 12799 12800 12801 12802 12803 12804 12805 12806 12807 12808 12809 12810
 12811 12812 12813 12814 12815 12816 12817 12818 12819 12820 12821 12822 12823
 12824 12825 12826 12827 12828 12829 12830 12831 12832 12833 12834 12835 12836
 12837 12838 12839 12840 12841 12842 12843 12844 12845 12846 12847 12848 12849
 12850 12851 12852 12853 12854 12855 12856 12858 12859 12860 12861 12862 12863
 12864 12865 12866 12867 12868 12869 12870 12871 12872 12873 12874 12875 12876
 12877 12878 12879 12880 12881 12882 12883 12884 12885 12886 12887 12888 12889
 12890 12891 12892 12893 12894 12895 12896 12906 12914 12915 12916 12917 12918
 12919 12920 12921 12922 12923 12924 12925 12926 12927 12928 12929 12930 12931
 12932 12933 12934 12935 12936 12937 12938 12939 12940 12941 12942 12943 12944
 12945 12946 12947 12948 12949 12950 12951 12952 12953 12954 12955 12956 12957
 12958 12959 12960 12961 12962 12963 12964 12965 12966 12967 12968 12969 12970
 12971 12972 12973 12974 12975 12976 12977 12978 12979 12980 12981 12982 12983
 12984 12985 12986 13029 13030 13031 13032 13033 13034 13035 13036 13037 13038
 13039 13040 13041 13042 13043 13044 13045 13046 13047 13048 13049 13062 13064
 13065 13066 13067 13068 13069 13070 13098 13099 13100 13101 13102 13103 13104
 13105 13106 13107 13108 13109 13110 13111 13112 13113 13114 13115 13116 13117
 13118 13140 13141 13142 13143 13144 13145 13146 13147 13148 13149 13150 13151
 13152 13153 13154 13155 13156 13157 13158 13159 13160 13161 13162 13163 13164
 13165 13166 13167 13168 13169 13170 13171 13172 13173 13174 13175 13176 13177
 13178 13179 13180 13181 13182 13183 13184 13185 13186 13187 13188 13189 13190
 13191 13192 13193 13194 13195 13196 13197 13198 13199 13200 13201 13202 13203
 13204 13205 13206 13207 13208 13209 13210 13211 13212 13213 13214 13215 13216
 13217 13218 13219 13220 13221 13222 13223 13224 13225 13226 13227 13228 13229
 13230 13231 13232 13233 13234 13235 13236 13237 13238 13239 13240 13241 13242
 13243 13244 13245 13246 13247 13248 13249 13250 13251 13252 13253 13254 13255
 13256 13257 13258 13259 13260 13261 13262 13263 13264 13265 13266 13267 13268
 13269 13270 13271 13272 13273 13274 13275 13276 13277 13278 13279 13280 13281
 13282 13283 13284 13285 13286 13287 13288 13289 13290 13291 13292 13293 13294
 13295 13296 13297 13298 13299 13302 13303 13304 13306 13307 13308 13309 13310
 13311 13312 13313 13314 13315 13316 13317 13318 13319 13320 13321 13322 13323
 13324 13325 13326 13327 13328 13329 13330 13331 13332 13333 13334 13335 13336
 13337 13338 13339 13340 13341 13342 13343 13344 13345 13346 13347 13348 13349
 13350 13351 13352 13353 13354 13355 13356 13357 13358 13359 13360 13361 13362
 13363 13364 13365 13366 13367 13368 13369 13370 13371 13372 13373 13374 13375
 13376 13377 13378 13379 13380 13381 13382 13383 13384 13385 13386 13387 13388
 13389 13390 13391 13392 13393 13394 13395 13396 13397 13398 13399 13400 13401
 13402 13403 13404 13405 13406 13407 13408 13409 13410 13411 13412 13413 13414
 13415 13416 13417 13418 13419 13420 13421 13422 13423 13424 13425 13426 13427
 13428 13429 13430 13431 13432 13433 13434 13435 13436 13437 13438 13439 13440
 13441 13442 13443 13444 13445 13446 13447 13448 13449 13450 13451 13452 13453
 13454 13455 13456 13457 13458 13459 13460 13461 13462 13463 13464 13465 13466
 13467 13468 13469 13470 13471 13472 13473 13474 13475 13476 13477 13478 13479
 13480 13481 13482 13483 13484 13485 13487 13488 13497 13498 13499 13500 13501
 13502 13503 13504 13505 13506 13507 13508 13509 13510 13511 13512 13513 13514
 13515 13516 13517 13518 13519 13520 13521 13522 13523 13524 13525 13526 13527
 13528 13529 13530 13531 13532 13533 13534 13535 13536 13537 13538 13539 13540
 13541 13542 13543 13544 13545 13546 13547 13548 13549 13550 13551 13552 13553
 13554 13555 13556 13557 13558 13559 13560 13561 13562 13563 13564 13565 13566
 13567 13568 13569 13570 13571 13572 13573 13574 13575 13576 13577 13578 13579
 13580 13581 13582 13583 13584 13585 13586 13587 13588 13589 13590 13591 13592
 13593 13594 13595 13596 13597 13598 13599 13600 13601 13602 13603 13604 13605
 13606 13607 13608 13609 13610 13611 13612 13613 13614 13615 13616 13617 13618
 13619 13620 13621 13622 13623 13624 13625 13626 13627 13628 13629 13630 13631
 13632 13633 13634 13635 13636 13637 13638 13639 13640 13641 13642 13643 13644
 13645 13646 13647 13648 13649 13650 13651 13652 13653 13654 13655 13656 13657
 13658 13659 13660 13661 13662 13663 13664 13665 13666 13667 13668 13669 13670
 13671 13672 13673 13674 13675 13676 13677 13678 13679 13680 13681 13682 13683
 13684 13685 13686 13687 13688 13689 13690 13691 13692 13693 13694 13695 13696
 13697 13698 13699 13700 13701 13702 13703 13704 13705 13706 13707 13708 13709
 13710 13711 13712 13713 13714 13715 13716 13717 13718 13719 13720 13721 13722
 13723 13724 13725 13726 13727 13728 13729 13730 13731 13732 13733 13734 13735
 13736 13737 13738 13739 13740 13741 13742 13743 13744 13745 13746 13747 13748
 13749 13750 13751 13752 13753 13754 13755 13756 13757 13758 13759 13760 13761
 13762 13763 13764 13765 13766 13767 13768 13769 13770 13771 13772 13773 13774
 13775 13776 13777 13778 13779 13780 13781 13782 13783 13784 13785 13786 13787
 13788 13789 13790 13791 13792 13793 13794 13795 13796 13797 13798 13799 13800
 13801 13802 13803 13804 13805 13806 13807 13808 13809 13810 13811 13812 13813
 13814 13815 13816 13817 13818 13819 13820 13821 13822 13823 13824 13825 13826
 13827 13828 13829 13830 13831 13832 13833 13834 13835 13836 13837 13838 13839
 13840 13841 13842 13843 13844 13845 13846 13847 13848 13849 13850 13851 13852
 13853 13854 13855 13856 13857 13858 13859 13860 13861 13862 13863 13864 13865
 13866 13867 13868 13869 13870 13871 13872 13873 13874 13875 13876 13877 13878
 13879 13880 13881 13882 13883 13884 13885 13886 13887 13888 13889 13890 13891
 13892 13893 13894 13895 13896 13897 13898 13899 13900 13901 13902 13903 13904
 13905 13906 13907 13908 13909 13910 13911 13912 13913 13914 13915 13916 13917
 13918 13919 13920 13921 13922 13923 13924 13925 13926 13927 13928 13929 13930
 13931 13932 13933 13934 13935 13936 13937 13938 13939 13940 13941 13942 13943
 13944 13945 13946 13947 13948 13949 13950 13951 13952 13953 13954 13955 13956
 13957 13958 13959 13960 13961 13962 13963 13964 13965 13966 13967 13968 13969
 13970 13971 13972 13973 13974 13975 13976 13977 13978 13979 13980 13981 13982
 13983 13984 13985 13986 13987 13988 13989 13990 13991 13992 13993 13994 13995
 13996 13997 13998 13999 14000 14001 14002 14003 14004 14005 14006 14007 14008
 14009 14010 14011 14012 14013 14014 14015 14016 14017 14018 14019 14020 14021
 14022 14023 14024 14025 14026 14027 14028 14029 14030 14031 14032 14033 14034
 14035 14036 14037 14038 14039 14040 14041 14042 14043 14044 14045 14046 14047
 14048 14049 14050 14051 14052 14053 14054 14055 14056 14057 14058 14059 14060
 14061 14062 14063 14064 14065 14066 14067 14068 14069 14070 14071 14072 14073
 14074 14075 14079 14081 14082 14083 14089 14090 14091 14092 14093 14094 14095
 14096 14097 14098 14099 14100 14101 14102 14103 14104 14105 14106 14107 14108
 14109 14110 14111 14112 14113 14114 14115 14116 14117 14118 14119 14120 14121
 14122 14123 14124 14125 14126 14127 14128 14129 14130 14136 14137 14138 14139
 14140 14141 14142 14143 14144 14145 14146 14147 14148 14149 14150 14151 14152
 14153 14154 14155 14158 14160 14161 14162 14163 14164 14165 14166 14167 14168
 14169 14170 14171 14172 14173 14174 14175 14176 14177 14178 14179 14180 14181
 14182 14183 14184 14185 14186 14187 14188 14189 14190 14191 14192 14193 14194
 14195 14196 14197 14198 14199 14200 14201 14202 14203 14204 14205 14206 14207
 14208 14209 14210 14211 14212 14213 14214 14215 14216 14217 14218 14219 14220
 14221 14222 14223 14224 14225 14226 14227 14228 14229 14230 14231 14232 14233
 14234 14235 14236 14237 14238 14239 14240 14241 14242 14243 14244 14245 14246
 14247 14248 14249 14250 14251 14252 14253 14254 14255 14256 14257 14258 14259
 14260 14261 14262 14263 14264 14265 14266 14267 14268 14269 14270 14271 14272
 14273 14274 14275 14276 14277 14278 14279 14280 14281 14282 14283 14284 14285
 14286 14287 14288 14289 14290 14291 14292 14293 14294 14295 14296 14297 14298
 14299 14300 14301 14302 14303 14304 14305 14306 14307 14308 14309 14310 14311
 14312 14313 14314 14315 14316 14317 14318 14319 14320 14321 14322 14323 14324
 14325 14326 14327 14328 14329 14330 14331 14332 14333 14334 14335 14336 14337
 14338 14339 14340 14341 14342 14343 14344 14345 14346 14347 14348 14349 14350
 14351 14352 14353 14354 14355 14356 14357 14358 14359 14360 14361 14362 14363
 14364 14365 14366 14367 14368 14369 14370 14371 14372 14373 14374 14375 14376
 14377 14378 14379 14380 14381 14382 14383 14384 14385 14386 14387 14388 14389
 14390 14391 14392 14393 14394 14395 14396 14397 14398 14399 14400 14401 14402
 14403 14404 14405 14406 14407 14408 14409 14410 14411 14412 14413 14414 14415
 14416 14417 14418 14419 14420 14421 14422 14423 14424 14425 14426 14427 14428
 14429 14430 14431 14432 14433 14434 14435 14436 14437 14438 14439 14440 14441
 14442 14443 14444 14445 14446 14447 14448 14449 14450 14451 14452 14453 14454
 14455 14456 14457 14458 14459 14460 14461 14462 14463 14464 14465 14466 14467
 14468 14469 14470 14471 14472 14473 14474 14475 14476 14477 14478 14479 14480
 14481 14482 14483 14484 14485 14486 14487 14488 14489 14490 14491 14507 14508
 14509 14510 14511 14512 14513 14514 14515 14516 14517 14518 14519 14520 14521
 14522 14523 14524 14525 14526 14527 14528 14529 14530 14531 14532 14533 14534
 14535 14536 14537 14538 14539 14540 14541 14542 14543 14544 14545 14546 14547
 14548 14549 14550 14551 14552 14553 14563 14565 14566 14567 14571 14573 14575
 14576 14577 14578 14579 14580 14581 14582 14583 14584 14585 14586 14587 14588
 14589 14590 14591 14592 14593 14594 14595 14596 14597 14598 14599 14600 14622
 14623 14624 14625 14626 14627 14628 14629 14630 14631 14632 14633 14634 14635
 14636 14637 14638 14639 14640 14641 14642 14664 14665 14666 14667 14668 14669
 14670 14671 14672 14673 14674 14675 14676 14677 14678 14679 14680 14681 14682
 14683 14684 14685 14686 14687 14688 14689 14690 14691 14692 14693 14694 14695
 14696 14697 14698 14699 14700 14701 14702 14703 14704 14705 14706 14707 14708
 14709 14710 14711 14712 14713 14714 14715 14716 14717 14718 14719 14720 14721
 14722 14723 14724 14725 14726 14727 14728 14729 14730 14731 14732 14733 14734
 14735 14736 14737 14738 14739 14740 14741 14742 14743 14744 14745 14746 14747
 14748 14749 14750 14751 14752 14796 14821 14822 14823 14833 14834 14838 14839
 14840 14841 14842 14843 14844 14845 14846 14847 14848 14849 14850 14851 14852
 14853 14854 14855 14856 14857 14859 14866 14867 14868 14869 14870 14871 14872
 14873 14874 14875 14876 14877 14878 14879 14880 14881 14882 14883 14884 14885
 14886 14887 14888 14889 14890 14891 14892 14893 14894 14895 14896 14897 14898
 14899 14900 14901 14902 14903 14904 14905 14906 14907 14908 14909 14910 14911
 14912 14913 14914 14915 14916 14917 14918 14919 14920 14921 14922 14923 14924
 14925 14926 14927 14928 14930 14936 14937 14938 14939 14940 14941 14942 14943
 14944 14945 14946 14947 14948 14949 14950 14951 14952 14953 14954 14955 14956
 14957 14958 14959 14960 14961 14962 14963 14964 14965 14966 14967 14968 14969
 14970 14971 14972 14973 14974 14975 14976 14977 14978 14979 14980 14981 14982
 14983 14984 14985 14986 14987 14988 14989 14990 14991 14992 14993 14994 14995
 14996 14997 14998 14999 15000 15001 15002 15003 15004 15005 15006 15007 15008
 15009 15010 15011 15012 15013 15014 15015 15016 15017 15018 15019 15020 15021
 15022 15023 15024 15025 15026 15027 15028 15029 15030 15031 15032 15033 15034
 15035 15036 15037 15038 15039 15040 15041 15042 15043 15044 15045 15046 15047
 15048 15049 15050 15051 15052 15053 15054 15055 15056 15057 15058 15059 15060
 15061 15062 15063 15064 15065 15066 15067 15068 15069 15070 15071 15072 15073
 15074 15075 15076 15077 15078 15079 15080 15081 15082 15083 15084 15085 15086
 15087 15088 15089 15090 15091 15092 15093 15094 15095 15096 15097 15098 15099
 15100 15101 15102 15103 15104 15105 15106 15107 15108 15109 15110 15111 15112
 15113 15114 15115 15116 15117 15118 15119 15120 15121 15122 15123 15124 15125
 15126 15127 15128 15129 15130 15131 15132 15133 15134 15135 15136 15137 15138
 15139 15140 15141 15142 15143 15144 15145 15146 15147 15148 15149 15150 15151
 15152 15153 15154 15155 15156 15157 15158 15159 15160 15161 15162 15163 15164
 15165 15166 15167 15168 15169 15170 15171 15172 15173 15174 15175 15176 15177
 15178 15179 15180 15181 15182 15183 15184 15185 15186 15187 15188 15189 15190
 15191 15192 15193 15194 15195 15196 15197 15198 15199 15200 15201 15202 15203
 15204 15205 15206 15207 15208 15209 15210 15211 15212 15213 15214 15215 15216
 15217 15218 15219 15220 15221 15222 15223 15224 15225 15226 15227 15228 15229
 15230 15231 15232 15233 15234 15235 15236 15237 15238 15239 15240 15241 15242
 15243 15244 15245 15246 15247 15248 15249 15250 15251 15252 15253 15254 15255
 15256 15257 15258 15259 15260 15261 15262 15263 15264 15265 15266 15267 15268
 15269 15270 15271 15272 15273 15274 15275 15276 15277 15278 15279 15280 15281
 15282 15283 15284 15285 15286 15287 15288 15289 15290 15291 15292 15293 15294
 15295 15296 15297 15298 15299 15300 15301 15302 15303 15304 15305 15306 15307
 15308 15309 15310 15311 15312 15313 15314 15315 15316 15317 15318 15319 15320
 15321 15322 15323 15324 15325 15326 15327 15328 15329 15330 15331 15332 15333
 15334 15335 15336 15337 15338 15339 15340 15341 15342 15343 15344 15345 15346
 15347 15348 15349 15350 15351 15352 15353 15354 15355 15356 15357 15358 15359
 15360 15361 15362 15363 15364 15365 15366 15367 15368 15369 15370 15371 15372
 15373 15374 15375 15376 15377 15378 15379 15380 15381 15382 15383 15384 15385
 15386 15387 15388 15389 15390 15391 15392 15393 15394 15395 15396 15397 15398
 15399 15400 15401 15402 15403 15404 15405 15406 15407 15408 15409 15410 15411
 15412 15413 15414 15415 15416 15417 15418 15419 15420 15421 15422 15423 15424
 15425 15426 15427 15428 15429 15430 15431 15432 15433 15434 15435 15436 15437
 15438 15439 15440 15441 15442 15443 15444 15445 15446 15447 15448 15449 15450
 15451 15452 15453 15454 15455 15456 15457 15458 15459 15460 15461 15462 15463
 15464 15465 15466 15467 15468 15469 15470 15471 15472 15473 15474 15475 15476
 15477 15478 15479 15480 15481 15482 15483 15484 15485 15486 15487 15488 15489
 15490 15491 15492 15493 15494 15495 15496 15497 15498 15499 15500 15501 15502
 15503 15504 15505 15506 15507 15508 15509 15510 15511 15512 15513 15514 15515
 15516 15517 15518 15519 15520 15521 15522 15523 15524 15525 15526 15527 15528
 15529 15530 15531 15532 15533 15534 15535 15536 15537 15538 15539 15540 15541
 15542 15543 15544 15545 15546 15547 15548 15549 15550 15551 15552 15553 15554
 15555 15556 15557 15558 15559 15560 15561 15562 15563 15564 15565 15566 15567
 15568 15569 15570 15571 15572 15573 15574 15575 15576 15577 15578 15579 15580
 15581 15582 15583 15584 15585 15586 15587 15588 15589 15590 15591 15592 15593
 15594 15595 15596 15597 15598 15599 15600 15601 15602 15603 15604 15605 15606
 15607 15608 15609 15610 15611 15612 15613 15614 15615 15616 15617 15618 15619
 15620 15621 15622 15623 15624 15625 15626 15627 15628 15629 15630 15631 15632
 15633 15634 15635 15636 15637 15638 15639 15640 15641 15642 15643 15644 15645
 15646 15647 15648 15649 15650 15651 15652 15653 15654 15655 15656 15657 15658
 15659 15660 15661 15662 15663 15664 15665 15666 15667 15668 15669 15670 15671
 15672 15673 15674 15675 15676 15677 15678 15679 15680 15681 15682 15683 15684
 15685 15686 15687 15688 15689 15690 15691 15692 15693 15694 15695 15696 15697
 15698 15699 15700 15701 15702 15703 15704 15705 15706 15707 15708 15709 15710
 15711 15712 15713 15714 15715 15716 15717 15718 15719 15720 15721 15722 15723
 15724 15725 15726 15727 15728 15729 15730 15731 15732 15733 15734 15735 15736
 15737 15738 15739 15740 15741 15742 15743 15744 15745 15746 15747 15748 15749
 15750 15751 15752 15753 15754 15755 15756 15757 15758 15759 15760 15761 15762
 15763 15764 15765 15766 15767 15768 15769 15770 15771 15772 15773 15774 15775
 15776 15777 15778 15779 15780 15781 15782 15783 15784 15785 15786 15787 15788
 15789 15790 15791 15792 15793 15794 15795 15796 15797 15798 15799 15800 15801
 15802 15803 15804 15805 15806 15807 15808 15809 15810 15811 15812 15813 15814
 15815 15816 15817 15818 15819 15820 15821 15822 15823 15824 15825 15826 15827
 15828 15829 15830 15831 15832 15833 15834 15835 15836 15837 15838 15839 15840
 15841 15842 15843 15844 15845 15846 15847 15848 15849 15850 15851 15852 15853
 15854 15855 15856 15857 15858 15859 15860 15861 15862 15863 15864 15865 15866
 15867 15868 15869 15870 15871 15872 15873 15874 15875 15876 15877 15878 15879
 15880 15881 15882 15883 15884 15885 15886 15887 15888 15889 15890 15891 15892
 15893 15894 15895 15896 15897 15898 15899 15900 15901 15902 15903 15904 15905
 15906 15907 15908 15909 15910 15911 15912 15913 15914 15915 15916 15917 15918
 15919 15920 15921 15922 15923 15924 15925 15926 15927 15928 15929 15930 15931
 15932 15933 15934 15935 15936 15937 15938 15939 15940 15941 15942 15943 15944
 15945 15946 15947 15948 15949 15950 15951 15952 15953 15954 15955 15956 15957
 15958 15959 15960 15961 15962 15963 15964 15965 15966 15967 15968 15969 15970
 15971 15972 15973 15974 15975 15976 15977 15978 15979 15980 15981 15982 15983
 15984 15985 15986 15987 15988 15989 15990 15991 15992 15993 15994 15995 15996
 15997 15998 15999 16000 16001 16002 16003 16004 16005 16006 16007 16008 16009
 16010 16011 16012 16013 16014 16015 16016 16017 16018 16019 16020 16021 16022
 16023 16024 16025 16026 16027 16028 16029 16030 16031 16032 16033 16034 16036
 16041 16048 16049 16051 16054 16056 16057 16058 16059 16060 16061 16062 16063
 16064 16065 16066 16067 16068 16069 16070 16071 16072 16073 16074 16076 16077
 16078 16079 16080 16081 16082 16083 16084 16085 16086 16087 16088 16089 16090
 16091 16092 16093 16094 16095 16096 16097 16098 16099 16100 16101 16102 16103
 16104 16105 16106 16107 16108 16109 16110 16111 16112 16113 16114 16115 16116
 16117 16118 16119 16120 16121 16122 16123 16124 16125 16126 16127 16128 16129
 16130 16131 16132 16134 16135 16136 16142 16145 16146 16147 16148 16149 16150
 16151 16152 16153 16154 16155 16156 16157 16158 16159 16160 16161 16162 16163
 16164 16165 16166 16167 16168 16169 16170 16171 16172 16173 16174 16175 16176
 16177 16178 16179 16180 16181 16182 16183 16184 16185 16186 16187 16188 16189
 16190 16191 16192 16193 16194 16195 16196 16197 16198 16199 16200 16201 16202
 16203 16204 16205 16206 16207 16208 16209 16210 16211 16212 16213 16214 16215
 16216 16217 16218 16219 16220 16221 16222 16223 16224 16225 16226 16227 16228
 16229 16230 16231 16232 16233 16234 16235 16236 16237 16238 16239 16240 16241
 16242 16243 16244 16248 16249 16250 16251 16252 16253 16254 16255 16256 16257
 16258 16259 16260 16261 16262 16263 16264 16265 16266 16267 16268 16269 16270
 16271 16272 16273 16274 16275 16276 16277 16278 16279 16280 16281 16282 16283
 16284 16285 16286 16287 16288 16289 16290 16291 16292 16293 16294 16295 16296
 16297 16298 16299 16300 16301 16302 16303 16304 16305 16306 16307 16308 16309
 16310 16311 16312 16313 16314 16315 16316 16317 16318 16319 16320 16321 16322
 16323 16324 16325 16326 16327 16328 16329 16330 16331 16332 16333 16334 16335
 16336 16337 16338 16339 16353 16359 16360 16382 16383 16384 16385 16386 16387
 16388 16389 16390 16391 16392 16393 16394 16395 16396 16397 16398 16399 16400
 16401 16402 16407 16408 16409 16410 16411 16412 16413 16414 16415 16416 16417
 16418 16419 16420 16421 16422 16423 16424 16425 16426 16427 16428 16429 16430
 16431 16432 16433 16434 16435 16436 16437 16438 16439 16440 16441 16442 16443
 16444 16445 16446 16447 16448 16449 16450 16451 16452 16453 16454 16455 16456
 16457 16458 16459 16460 16461 16462 16463 16464 16465 16466 16467 16468 16469
 16470 16471 16472 16473 16474 16475 16476 16477 16478 16479 16480 16481 16482
 16483 16484 16485 16486 16487 16488 16489 16490 16491 16492 16493 16494 16495
 16496 16497 16498 16499 16500 16501 16502 16503 16504 16505 16506 16507 16508
 16509 16510 16511 16512 16513 16514 16515 16516 16517 16518 16519 16520 16521
 16522 16523 16524 16525 16526 16527 16528 16529 16530 16531 16532 16533 16534
 16535 16536 16537 16538 16539 16540 16541 16542 16543 16544 16545 16546 16547
 16548 16549 16550 16551 16552 16553 16554 16555 16556 16557 16558 16559 16560
 16561 16562 16563 16564 16565 16566 16567 16568 16569 16570 16571 16572 16573
 16574 16575 16576 16577 16578 16579 16580 16581 16582 16583 16584 16585 16586
 16587 16588 16589 16590 16591 16592 16593 16594 16595 16596 16597 16598 16599
 16600 16601 16602 16603 16604 16605 16606 16607 16608 16609 16610 16611 16612
 16613 16614 16615 16616 16617 16618 16619 16620 16621 16622 16623 16624 16625
 16626 16627 16628 16629 16630 16631 16632 16633 16634 16635 16636 16637 16638
 16639 16640 16641 16642 16643 16644 16645 16646 16647 16648 16649 16650 16651
 16652 16653 16654 16655 16656 16657 16658 16659 16660 16661 16662 16663 16664
 16665 16666 16667 16668 16669 16670 16671 16672 16673 16674 16675 16676 16677
 16678 16679 16680 16681 16682 16683 16684 16685 16686 16687 16688 16689 16690
 16691 16692 16693 16694 16695 16696 16697 16698 16699 16700 16701 16702 16703
 16704 16705 16706 16707 16708 16709 16710 16711 16712 16713 16714 16715 16716
 16717 16718 16719 16720 16721 16722 16723 16724 16725 16726 16727 16728 16729
 16730 16731 16732 16733 16734 16735 16736 16737 16738 16739 16740 16741 16742
 16743 16744 16745 16746 16747 16748 16749 16750 16751 16752 16753 16754 16755
 16756 16757 16758 16759 16760 16761 16762 16763 16764 16765 16766 16767 16768
 16769 16770 16771 16772 16773 16774 16775 16776 16777 16778 16779 16780 16781
 16782 16783 16784 16785 16786 16787 16788 16789 16790 16791 16792 16793 16794
 16795 16796 16797 16798 16799 16800 16801 16802 16803 16804 16805 16806 16807
 16808 16809 16810 16811 16812 16813 16814 16815 16816 16817 16818 16819 16820
 16821 16822 16823 16824 16825 16826 16827 16828 16829 16830 16831 16832 16833
 16834 16835 16836 16837 16838 16839 16840 16841 16842 16843 16844 16845 16846
 16847 16848 16849 16850 16851 16852 16853 16854 16855 16856 16857 16858 16859
 16860 16861 16862 16863 16864 16865 16866 16867 16868 16869 16870 16871 16872
 16873 16874 16875 16876 16877 16878 16879 16880 16881 16882 16883 16884 16885
 16886 16887 16888 16889 16890 16891 16892 16893 16894 16895 16896 16897 16898
 16899 16900 16901 16902 16903 16904 16905 16906 16907 16908 16909 16910 16911
 16912 16913 16914 16915 16916 16917 16918 16919 16920 16921 16922 16923 16924
 16925 16926 16927 16928 16929 16930 16931 16932 16933 16934 16935 16936 16937
 16938 16939 16940 16941 16942 16943 16944 16945 16946 16947 16948 16949 16950
 16951 16952 16953 16954 16955 16956 16957 16958 16959 16960 16961 16962 16963
 16964 16965 16966 16967 16968 16969 16970 16971 16972 16973 16974 16975 16976
 16977 16978 16979 16980 16981 16982 16983 16984 16985 16986 16987 16988 16989
 16990 16991 16992 16993 16994 16995 16996 16997 16998 16999 17000 17001 17002
 17003 17004 17005 17006 17007 17008 17009 17010 17011 17012 17013 17014 17015
 17016 17017 17018 17030 17031 17032 17033 17034 17035 17036 17037 17038 17039
 17040 17041 17042 17043 17044 17045 17046 17047 17048 17049 17050 17051 17052
 17053 17054 17055 17056 17057 17058 17059 17060 17061 17062 17063 17064 17065
 17066 17067 17068 17069 17070 17071 17072 17073 17074 17075 17076 17077 17078
 17079 17080 17081 17082 17083 17084 17085 17086 17087 17088 17089 17090 17091
 17092 17093 17094 17095 17096 17097 17098 17099 17100 17101 17102 17103 17104
 17105 17106 17107 17108 17109 17110 17111 17112 17113 17114 17115 17116 17117
 17118 17119 17120 17121 17122 17123 17124 17125 17126 17127 17128 17129 17130
 17131 17132 17133 17134 17135 17136 17137 17138 17139 17140 17141 17142 17143
 17144 17145 17146 17147 17148 17149 17150 17151 17152 17153 17154 17155 17156
 17157 17158 17159 17160 17161 17162 17163 17164 17165 17166 17167 17168 17169
 17170 17171 17172 17173 17174 17175 17176 17177 17178 17179 17180 17181 17182
 17183 17184 17185 17186 17187 17188 17189 17190 17191 17192 17193 17194 17195
 17196 17197 17198 17199 17200 17201 17218 17219 17220 17221 17222 17223 17224
 17225 17226 17227 17228 17229 17230 17231 17232 17233 17234 17235 17236 17237
 17238 17239 17240 17241 17242 17243 17246 17270 17271 17272 17273 17274 17275
 17276 17277 17278 17279 17280 17281 17282 17283 17284 17285 17286 17287 17288
 17289 17290 17296 17297 17299 17300 17301 17302 17303 17304 17305 17306 17307
 17308 17309 17310 17311 17312 17313 17314 17315 17316 17317 17318 17319 17320
 17321 17322 17323 17324 17325 17326 17327 17328 17329 17330 17331 17332 17375
 17376 17377 17378 17379 17380 17381 17382 17383 17384 17385 17386 17387 17388
 17389 17390 17391 17392 17393 17394 17395 17396 17397 17398 17399 17400 17401
 17402 17403 17404 17405 17406 17407 17408 17409 17410 17411 17412 17413 17414
 17415 17416 17417 17418 17419 17420 17421 17422 17423 17424 17425 17426 17427
 17428 17429 17430 17431 17432 17433 17434 17435 17436 17437 17438 17439 17440
 17441 17442 17443 17444 17445 17446 17447 17448 17449 17450 17451 17452 17453
 17454 17455 17456 17457 17458 17459 17460 17461 17462 17463 17464 17465 17466
 17467 17468 17469 17470 17471 17472 17473 17474 17475 17476 17477 17478 17479
 17480 17481 17482 17483 17484 17485 17486 17487 17488 17489 17490 17491 17492
 17493 17494 17495 17496 17497 17498 17499 17500 17501 17502 17503 17504 17505
 17506 17507 17508 17509 17510 17511 17512 17513 17514 17515 17516 17517 17518
 17519 17520 17521 17522 17523 17524 17525 17526 17527 17528 17529 17530 17531
 17532 17533 17534 17535 17536 17537 17543 17544 17549 17550 17551 17552 17553
 17554 17555 17556 17557 17558 17559 17560 17561 17562 17563 17564 17565 17566
 17567 17568 17569 17570 17571 17572 17573 17574 17575 17576 17577 17578 17579
 17580 17581 17582 17583 17584 17585 17586 17587 17588 17589 17590 17591 17592
 17593 17594 17595 17596 17597 17598 17599 17600 17601 17602 17603 17604 17605
 17606 17607 17608 17609 17610 17611 17612 17613 17614 17615 17616 17617 17618
 17619 17620 17621 17622 17623 17624 17625 17626 17627 17628 17629 17630 17631
 17632 17633 17634 17635 17636 17637 17638 17639 17640 17641 17642 17643 17644
 17645 17646 17647 17648 17649 17650 17651 17652 17653 17654 17655 17656 17657
 17658 17659 17660 17663 17665 17675 17676 17677 17678 17679 17680 17681 17682
 17683 17684 17685 17686 17687 17688 17689 17690 17691 17692 17693 17694 17695
 17696 17697 17698 17699 17700 17701 17702 17703 17704 17705 17706 17707 17708
 17709 17710 17711 17712 17713 17714 17715 17716 17717 17718 17719 17720 17721
 17722 17723 17724 17725 17726 17727 17728 17729 17730 17731 17732 17733 17734
 17735 17736 17737 17738 17739 17740 17741 17742 17743 17744 17745 17746 17747
 17748 17749 17750 17751 17752 17753 17754 17755 17756 17757 17758 17759 17760
 17761 17762 17763 17764 17765 17766 17767 17768 17769 17770 17771 17772 17773
 17774 17775 17776 17777 17778 17779 17780 17781 17782 17783 17784 17785 17786
 17787 17788 17789 17790 17791 17792 17793 17794 17795 17796 17797 17798 17799
 17800 17801 17802 17803 17804 17805 17806 17807 17808 17809 17810 17811 17812
 17813 17814 17815 17816 17817 17818 17819 17820 17821 17822 17823 17824 17825
 17826 17827 17828 17829 17830 17831 17832 17833 17834 17835 17836 17837 17838
 17839 17840 17841 17842 17843 17844 17845 17846 17847 17848 17849 17850 17851
 17852 17853 17854 17855 17856 17857 17858 17859 17860 17861 17862 17863 17864
 17865 17866 17867 17868 17869 17870 17871 17872 17873 17874 17875 17876 17877
 17878 17879 17880 17881 17882 17883 17884 17885 17886 17887 17888 17889 17890
 17891 17892 17893 17894 17895 17896 17897 17898 17899 17900 17901 17902 17903
 17904 17905 17906 17907 17908 17909 17910 17911 17912 17913 17914 17915 17916
 17917 17918 17919 17920 17921 17922 17923 17924 17925 17926 17927 17928 17929
 17930 17931 17932 17933 17934 17935 17936 17937 17938 17939 17940 17941 17942
 17943 17944 17945 17946 17947 17948 17949 17950 17951 17952 17953 17954 17955
 17956 17957 17958 17959 17960 17961 17962 17963 17964 17965 17966 17967 17968
 17969 17970 17971 17972 17973 17974 17975 17976 17977 17978 17979 17980 17981
 17982 17983 17984 17985 17986 17987 17988 17989 17990 17991 17992 17993 17994
 17995 17996 17997 17998 17999 18000 18001 18002 18003 18004 18005 18006 18007
 18008 18009 18010 18011 18012 18013 18014 18015 18016 18017 18018 18019 18020
 18021 18022 18023 18024 18025 18026 18027 18028 18029 18030 18031 18032 18033
 18034 18035 18036 18037 18038 18039 18040 18041 18042 18043 18044 18045 18046
 18047 18048 18049 18050 18051 18052 18053 18054 18055 18056 18057 18058 18059
 18060 18061 18062 18063 18064 18065 18066 18067 18068 18069 18070 18071 18072
 18073 18074 18075 18076 18077 18078 18079 18080 18081 18082 18083 18084 18085
 18086 18087 18088 18089 18090 18091 18092 18093 18094 18095 18096 18097 18098
 18099 18100 18101 18102 18103 18104 18105 18106 18107 18108 18109 18110 18111
 18112 18113 18114 18115 18116 18117 18118 18123 18132 18133 18134 18158 18159
 18160 18161 18162 18163 18164 18165 18166 18167 18168 18169 18170 18171 18172
 18173 18174 18175 18176 18177 18178 18181 18205 18206 18207 18208 18209 18210
 18211 18212 18213 18214 18215 18216 18217 18218 18219 18220 18221 18222 18223
 18224 18225 18238 18241 18268 18269 18270 18271 18272 18273 18274 18275 18276
 18277 18278 18279 18280 18281 18282 18283 18284 18285 18286 18287 18288 18289
 18290 18291 18292 18293 18294 18295 18296 18297 18298 18299 18300 18301 18302
 18303 18304 18305 18306 18307 18308 18309 18336 18337 18338 18339 18340 18341
 18342 18343 18344 18345 18346 18347 18348 18349 18350 18351 18352 18353 18354
 18355 18356 18378 18379 18380 18381 18382 18383 18384 18385 18386 18387 18388
 18389 18390 18391 18392 18393 18394 18395 18396 18397 18398 18399 18400 18401
 18402 18403 18404 18405 18406 18407 18408 18409 18410 18411 18412 18413 18414
 18415 18416 18417 18418 18419 18420 18421 18422 18423 18424 18425 18426 18427
 18428 18429 18430 18431 18432 18433 18434 18435 18436 18437 18438 18439 18440
 18573 18574 18575 18576 18577 18578 18579 18580 18581 18582 18583 18584 18585
 18586 18587 18588 18589 18590 18591 18592 18593 18594 18595 18596 18597 18598
 18599 18600 18601 18602 18603 18604 18605 18606 18607 18608 18609 18610 18611
 18612 18613 18641 18642 18643 18644 18645 18646 18647 18648 18649 18650 18652
 18653 18654 18668 18669 18670 18671 18672 18673 18674 18675 18676 18677 18678
 18679 18680 18681 18682 18683 18684 18685 18686 18687 18688 18710 18711 18712
 18713 18714 18715 18716 18717 18718 18719 18720 18721 18722 18723 18724 18725
 18726 18727 18728 18729 18730 18731 18732 18733 18734 18735 18736 18737 18738
 18739 18740 18741 18742 18743 18744 18745 18746 18747 18748 18749 18750 18751
 18752 18753 18755 18909 18917 18918 18919 18920 18921 18922 19007 19008 19009
 19010 19011 19012 21109 21110 21111 21112 21113 21114 21115 21116 21117 21118
 21119 21120 21121 21122 21123 21124 21125 21126 21127 21128 21129 21130 21131
 21132 21133 21134 21135 21136 21137 21138 21139 21140 21141 21142 21143 21144
 21145 21146 21147 21148 21149 21150 21151 21152 21153 21154 21155 21156 21157
 21158 21159 21160 21161 21162 21163 21164 21165 21166 21167 21168 21169 21170
 21171 21172 21173 21174 21175 21176 21177 21178 21179 21180 21181 21182 21183
 21184 21185 21186 21187 21188 21189 21190 21191 21192 21193 21194 21195 21196
 21197 21198 21199 21200 21201 21202 21203 21204 21205 21206 21207 21208 21209
 21210 21211 21212 21213 21214 21215 21216 21217 21218 21219 21220 21221 21222
 21223 21224 21225 21226 21227 21228 21229 21230 21231 21232 21233 21234 21235
 21236 21237 21238 21239 21240 21241 21242 21243 21244 21245 21246 21247 21248
 21249 21250 21251 21252 21253 21254 21255 21256 21257 21258 21259 21260 21261
 21262 21263 21264 21265 21266 21267 21268 21269 21270 21271 21272 21273 21274
 21275 21276 21277 21278 21279 21280 21281 21282 21283 21284 21285 21286 21287
 21288 21289 21290 21291 21292 21293 21294 21295 21296 21297 21298 21299 21300
 21301 21302 21303 21304 21305 21306 21307 21308 21309 21310 21311 21312 21313
 21314 21315 21316 21317 21318 21319 21320 21321 21322 21323 21324 21325 21326
 21327 21328 21329 21330 21331 21332 21333 21334 21335 21336 21337 21338 21339
 21340 21341 21342 21343 21344 21345 21346 21347 21348 21349 21350 21351 21352
 21353 21354 21355 21356 21357 21358 21359 21360 21361 21362 21363 21364 21365
 21366 21367 21368 21369 21370 21371 21372 21373 21374 21375 21376 21377 21378
 21379 21380 21381 21382 21383 21384 21385 21386 21387 21388 21389 21390 21391
 21392 21393 21394 21395 21396 21397 21398 21399 21400 21401 21402 21403 21404
 21405 21406 21407 21408 21409 21410 21411 21412 21413 21414 21415 21416 21417
 21418 21419 21420 21421 21422 21423 21424 21425 21426 21427 21428 21429 21430
 21431 21432 21433 21434 21435 21436 21437 21438 21439 21440 21441 21442 21443
 21444 21445 21446 21447 21448 21449 21450 21451 21452 21453 21454 21455 21456
 21457 21458 21459 21460 21461 21462 21463 21464 21465 21466 21467 21468 21469
 21470 21471 21472 21473 21474 21475 21476 21477 21478 21479 21480 21481 21482
 21483 21484 21485 21486 21487 21488 21489 21490 21491 21492 21493 21494 21495
 21496 21497 21498 21499 21500 21501 21502 21503 21504 21505 21506 21507 21508
 21509 21510 21511 21512 21513 21514 21515 21516 21517 21518 21519 21520 21521
 21522 21523 21524 21525 21526 21527 21528 21529 21530 21531 21532 21533 21534
 21535 21536 21537 21538 21539 21540 21541 21542 21543 21544 21545 21546 21547
 21548 21549 21550 21551 21552 21553 21554 21555 21556 21557 21558 21559 21560
 21561 21562 21563 21564 21565 21566 21567 21568 21569 21570 21571 21572 21573
 21574 21575 21576 21577 21578 21579 21580 21581 21582 21583 21584 21585 21586
 21587 21588 21589 21590 21591 21592 21593 21594 21595 21596 21597 21598 21599
 21600 21601 21602 21603 21604 21605 21606 21607 21608 21609 21610 21611 21612
 21613 21614 21615 21616 21617 21618 21619 21620 21621 21622 21623 21624 21625
 21626 21627 21628 21629 21630 21631 21632 21633 21634 21635 21636 21637 21638
 21639 21640 21641 21642 21643 21644 21645 21646 21647 21648 21649 21650 21651
 21652 21653 21654 21655 21656 21657 21658 21659 21660 21661 21662 21663 21664
 21665 21666 21667 21668 21669 21670 21671 21672 21673 21674 21675 21676 21677
 21678 21679 21680 21681 21682 21683 21684 21685 21686 21687 21688 21689 21690
 21691 21692 21693 21694 21695 21696 21697 21698 21699 21700 21701 21702 21703
 21704 21705 21706 21707 21708 21709 21710 21711 21712 21713 21714 21715 21716
 21717 21718 21719 21720 21721 21722 21723 21724 21725 21726 21727 21728 21729
 21730 21731 21732 21733 21734 21735 21736 21737 21738 21739 21740 21741 21742
 21743 21744 21745 21746 21747 21748 21749 21750 21751 21752 21753 21754 21755
 21756 21757 21758 21759 21760 21761 21762 21763 21764 21765 21766 21767 21768
 21769 21770 21771 21772 21773 21774 21775 21776 21777 21778 21779 21780 21781
 21782 21783 21784 21785 21786 21787 21788 21789 21790 21791 21792 21793 21794
 21795 21796 21797 21798 21799 21800 21801 21802 21803 21804 21805 21806 21807
 21808 21809 21810 21811 21812 21813 21814 21815 21816 21817 21818 21819 21820
 21821 21822 21823 21824 21825 21826 21827 21828 21829 21830 21831 21832 21833
 21834 21835 21836 21837 21838 21839 21840 21841 21842 21843 21844 21845 21846
 21847 21848 21849 21850 21851 21852 21853 21854 21855 21856 21857 21858 21859
 21860 21861 21862 21863 21864 21865 21866 21867 21868 21869 21870 21871 21872
 21873 21874 21875 21876 21877 21878 21879 21880 21881 21882 21883 21884 21885
 21886 21887 21888 21889 21890 21891 21892 21893 21894 21895 21896 21897 21898
 21899 21900 21901 21902 21903 21904 21905 21906 21907 21908 21909 21910 21911
 21912 21913 21914 21915 21916 21917 21918 21919 21920 21921 21922 21923 21924
 21925 21926 21927 21928 21929 21930 21931 21932 21933 21934 21935 21936 21937
 21938 21939 21940 21941 21942 21943 21944 21945 21946 21947 21948 21949 21950
 21951 21952 21953 21954 21955 21956 21957 21958 21959 21960 21961 21962 21963
 21964 21965 21966 21967 21968 21969 21970 21971 21972 21973 21974 21975 21976
 21977 21978 21979 21980 21981 21982 21983 21984 21985 21986 21987 21988 21989
 21990 21991 21992 21993 21994 21995 21996 21997 21998 21999 22000 22001 22002
 22003 22004 22005 22006 22007 22008 22009 22010 22011 22012 22013 22014 22015
 22016 22017 22018 22019 22020 22021 22022 22023 22024 22025 22026 22027 22028
 22029 22030 22031 22032 22033 22034 22035 22036 22037 22038 22039 22040 22041
 22042 22043 22044 22045 22046 22047 22048 22049 22050 22051 22052 22053 22054
 22055 22056 22057 22058 22059 22060 22061 22062 22063 22064 22065 22066 22067
 22068 22069 22070 22071 22072 22073 22074 22075 22076 22077 22078 22079 22080
 22081 22082 22083 22084 22085 22086 22087 22088 22089 22090 22091 22092 22093
 22094 22095 22096 22097 22098 22099 22100 22101 22102 22103 22104 22105 22106
 22107 22108 22109 22110 22111 22112 22113 22114 22115 22116 22117 22118 22119
 22120 22121 22122 22123 22124 22125 22126 22127 22128 22129 22130 22131 22132
 22133 22134 22135 22136 22137 22138 22139 22140 22141 22142 22143 22144 22145
 22146 22147 22148 22149 22150 22151 22152 22153 22154 22155 22156 22157 22158
 22159 22160 22161 22162 22163 22164 22165 22166 22167 22168 22169 22170 22171
 22172 22173 22174 22175 22176 22177 22178 22179 22180 22181 22182 22183 22184
 22185 22186 22187 22188 22189 22190 22191 22192 22193 22194 22195 22196 22197
 22198 22199 22200 22201 22202 22203 22204 22205 22206 22207 22208 22209 22210
 22211 22212 22213 22214 22215 22216 22217 22218 22219 22220 22221 22222 22223
 22224 22225 22226 22227 22228 22229 22230 22231 22232 22233 22234 22235 22236
 22237 22238 22239 22240 22241 22242 22243 22244 22245 22246 22247 22248 22249
 22250 22251 22252 22253 22254 22255 22256 22257 22258 22259 22260 22261 22262
 22263 22264 22265 22266 22267 22268 22269 22270 22271 22272 22273 22274 22275
 22276 22277 22278 22279 22280 22281 22282 22283 22284 22285 22286 22287 22288
 22289 22290 22291 22292 22293 22294 22295 22296 22297 22298 22299 22300 22301
 22302 22303 22304 22305 22306 22307 22308 22309 22310 22311 22312 22313 22314
 22315 22316 22317 22318 22319 22320 22321 22322 22323 22324 22325 22326 22327
 22328 22329 22330 22331 22332 22333 22334 22335 22336 22337 22338 22339 22340
 22341 22342 22343 22344 22345 22346 22347 22348 22349 22350 22351 22352 22353
 22354 22355 22356 22357 22358 22359 22360 22361 22362 22363 22364 22365 22366
 22367 22368 22369 22370 22371 22372 22373 22374 22375 22376 22377 22378 22379
 22380 22381 22382 22383 22384 22385 22386 22387 22388 22389 22390 22391 22392
 22393 22394 22395 22396 22397 22398 22399 22400 22401 22402 22403 22404 22405
 22406 22407 22408 22409 22410 22411 22412 22413 22414 22415 22416 22417 22418
 22419 22420 22421 22422 22423 22424 22425 22426 22427 22428 22429 22430 22431
 22432 22433 22434 22435 22436 22437 22438 22439 22440 22441 22442 22443 22444
 22445 22446 22447 22448 22449 22450 22451 22452 22453 22454 22455 22456 22457
 22458 22459 22460 22461 22462 22463 22464 22465 22466 22467 22468 22469 22470
 22471 22472 22473 22474 22475 22476 22477 22478 22479 22480 22481 22482 22483
 22484 22485 22486 22487 22488 22489 22490 22491 22492 22493 22494 22495 22496
 22497 22498 22499 22500 22501 22502 22503 22504 22505 22506 22507 22508 22509
 22510 22511 22512 22513 22514 22515 22516 22517 22518 22519 22520 22521 22522
 22523 22524 22525 22526 22527 22528 22529 22530 22531 22532 22533 22534 22535
 22536 22537 22538 22539 22540 22541 22542 22543 22544 22545 22546 22547 22548
 22549 22550 22551 22552 22553 22554 22555 22556 22557 22558 22559 22560 22561
 22562 22563 22564 22565 22566 22567 22568 22569 22570 22571 22572 22573 22574
 22575 22576 22577 22578 22579 22580 22581 22582 22583 22584 22585 22586 22587
 22588 22589 22590 22591 22592 22593 22594 22595 22596 22597 22598 22599 22600
 22601 22602 22603 22604 22605 22606 22607 22608 22609 22610 22611 22612 22613
 22614 22615 22616 22617 22618 22619 22620 22621 22622 22623 22624 22625 22626
 22627 22628 22629 22630 22631 22632 22633 22634 22635 22636 22637 22638 22639
 22640 22641 22642 22643 22644 22645 22646 22647 22648 22649 22650 22651 22652
 22653 22654 22655 22656 22657 22658 22659 22660 22661 22662 22663 22664 22665
 22666 22667 22668 22669 22670 22671 22672 22673 22674 22675 22676 22677 22678
 22679 22680 22681 22682 22683 22684 22685 22686 22687 22688 22689 22690 22691
 22692 22693 22694 22695 22696 22697 22698 22699 22700 22701 22702 22703 22704
 22705 22706 22707 22708 22709 22710 22711 22712 22713 22714 22715 22716 22717
 22718 22719 22720 22721 22722 22723 22724 22725 22726 22727 22728 22729 22730
 22731 22732 22733 22734 22735 22736 22737 22738 22739 22740 22741 22742 22743
 22744 22745 22746 22747 22748 22749 22750 22751 22752 22753 22754 22755 22756
 22757 22758 22759 22760 22761 22762 22763 22764 22765 22766 22767 22768 22769
 22770 22771 22772 22773 22774 22775 22776 22777 22778 22779 22780 22781 22782
 22783 22784 22785 22786 22787 22788 22789 22790 22791 22792 22793 22794 22795
 22796 22797 22798 22799 22800 22801 22802 22803 22804 22805 22806 22807 22808
 22809 22810 22811 22812 22813 22814 22815 22816 22817 22818 22819 22820 22821
 22822 22823 22824 22825 22826 22827 22828 22829 22830 22831 22832 22833 22834
 22835 22836 22837 22838 22839 22840 22841 22842 22843 22844 22845 22846 22847
 22848 22849 22850 22851 22852 22853 22854 22855 22856 22857 22858 22859 22860
 22861 22862 22863 22864 22865 22866 22867 22868 22869 22870 22871 22872 22873
 22874 22875 22876 22877 22878 22879 22880 22881 22882 22883 22884 22885 22886
 22887 22888 22889 22890 22891 22892 22893 22894 22895 22896 22897 22898 22899
 22900 22901 22902 22903 22904 22905 22906 22907 22908 22909 22910 22911 22912
 22913 22914 22915 22916 22917 22918 22919 22920 22921 22922 22923 22924 22925
 22926 22927 22928 22929 22930 22931 22932 22933 22934 22935 22936 22937 22938
 22939 22940 22941 22942 22943 22944 22945 22946 22947 22948 22949 22950 22951
 22952 22953 22954 22955 22956 22957 22958 22959 22960 22961 22962 22963 22964
 22965 22966 22967 22968 22969 22970 22971 22972 22973 22974 22975 22976 22977
 22978 22979 22980 22981 22982 22983 22984 22985 22986 22987 22988 22989 22990
 22991 22992 22993 22994 22995 22996 22997 22998 22999 23000 23001 23002 23003
 23004 23005 23006 23007 23008 23009 23010 23011 23012 23013 23014 23015 23016
 23017 23018 23019 23020 23021 23022 23023 23024 23025 23026 23027 23028 23029
 23030 23031 23032 23033 23034 23035 23036 23037 23038 23039 23040 23041 23042
 23043 23044 23045 23046 23047 23048 23049 23050 23051 23052 23053 23054 23055
 23056 23057 23058 23059 23060 23061 23062 23063 23064 23065 23066 23067 23068
 23069 23070 23071 23072 23073 23074 23075 23076 23077 23078 23079 23080 23081
 23082 23083 23084 23085 23086 23087 23088 23089 23090 23091 23092 23093 23094
 23095 23096 23097 23098 23099 23100 23101 23102 23103 23104 23105 23106 23107
 23108 23109 23110 23111 23112 23113 23114 23115 23116 23117 23118 23119 23120
 23121 23122 23123 23124 23125 23126 23127 23128 23129 23130 23131 23132 23133
 23134 23135 23136 23137 23138 23139 23140 23141 23142 23143 23144 23145 23146
 23147 23148 23149 23150 23151 23152 23153 23154 23155 23156 23157 23158 23159
 23160 23161 23162 23163 23164 23165 23166 23167 23168 23169 23170 23171 23172
 23173 23174 23175 23176 23177 23178 23179 23180 23181 23182 23183 23184 23185
 23186 23187 23188 23189 23190 23191 23192 23193 23194 23195 23196 23197 23198
 23199 23200 23201 23202 23203 23204 23205 23206 23207 23208 23209 23210 23211
 23212 23213 23214 23215 23216 23217 23218 23219 23220 23221 23222 23223 23224
 23225 23226 23227 23228 23229 23230 23231 23232 23233 23234 23235 23236 23237
 23238 23239 23240 23241 23242 23243 23244 23245 23246 23247 23248 23249 23250
 23251 23252 23253 23254 23255 23256 23257 23258 23259 23260 23261 23262 23263
 23264 23265 23266 23267 23268 23269 23270 23271 23272 23273 23274 23275 23276
 23277 23278 23279 23280 23281 23282 23283 23284 23285 23286 23287 23288 23289
 23290 23291 23292 23293 23294 23295 23296 23297 23298 23299 23300 23301 23302
 23303 23304 23305 23306 23307 23308 23309 23310 23311 23312 23313 23314 23315
 23316 23317 23318 23319 23320 23321 23322 23323 23324 23325 23326 23327 23328
 23329 23330 23331 23332 23333 23334 23335 23336 23337 23338 23339 23340 23341
 23342 23343 23344 23345 23346 23347 23348 23349 23350 23351 23352 23353 23354
 23355 23356 23357 23358 23359 23360 23361 23362 23363 23364 23365 23366 23367
 23368 23369 23370 23371 23372 23373 23374 23375 23376 23377 23378 23379 23380
 23381 23382 23383 23384 23385 23386 23387 23388 23389 23390 23391 23392 23393
 23394 23395 23396 23397 23398 23399 23400 23401 23402 23403 23404 23405 23406
 23407 23408 23409 23410 23411 23412 23413 23414 23415 23416 23417 23418 23419
 23420 23421 23422 23423 23424 23425 23426 23427 23428 23429 23430 23431 23432
 23433 23434 23435 23436 23437 23438 23439 23440 23441 23442 23443 23444 23445
 23446 23447 23448 23449 23450 23451 23452 23453 23454 23455 23456 23457 25807
 25808 25809 25810 25811 25812 25813 25814 25815 25816 25817 25818 25819 25820
 25821 25822 25823 25824 25825 25826 25827 25828 25829 25830 25831 25832 25833
 25834 25835 25836 25837 25838 25839 25840 25841 25842 25843 25844 25845 25846
 25847 25848 25849 25850 25851 25852 25853 25854 25855 25856 25857 25858 25859
 25860 25861 25862 25863 25864 25865 25866 25867 25868 25869 25870 25871 25872
 25873 25874 25875 25876 25877 25878 25879 25880 25881 25882 25883 25884 25885
 25886 25887 25888 25889 25890 25891 25892 25893 25894 25895 25896 25897 25898
 25899 25900 25901 25902 25903 25904 25905 25906 25907 25908 25909 25910 25911
 25912 25913 25914 25915 25916 25917 25918 25919 25920 25921 25922 25923 25924
 25925 25926 25927 25928 25929 25930 25931 25932 25933 25934 25935 25936 25937
 25938 25939 25940 25941 25942 25943 25944 25945 25946 25947 25948 25949 25950
 25951 25952 25953 25954 25955 25956 25957 25958 25959 25960 25961 25962 25963
 25964 25965 25966 25967 25968 25969 25970 25971 25972 25973 25974 25975 25976
 25977 25978 25979 25980 25981 25982 25983 25984 25985 25986 25987 25988 25989
 25990 25991 25992 25993 25994 25995 25996 25997 25998 25999 26000 26001 26002
 26003 26004 26005 26006 26007 26008 26009 26010 26011 26012 26013 26014 26015
 26016 26017 26018 26019 26020 26021 26022 26023 26024 26025 26026 26027 26028
 26029 26030 26031 26032 26033 26034 26035 26036 26037 26038 26039 26040 26041
 26042 26043 26044 26045 26046 26047 26048 26049 26050 26051 26052 26053 26054
 26055 26056 26057 26058 26059 26060 26061 26062 26063 26064 26065 26066 26067
 26068 26069 26070 26071 26072 26073 26074 26075 26076 26077 26078 26079 26080
 26081 26082 26083 26084 26085 26086 26087 26088 26089 26090 26091 26092 26093
 26094 26095 26096 26097 26098 26099 26100 26101 26102 26103 26104 26105 26106
 26107 26108 26109 26110 26111 26112 26113 26114 26115 26116 26117 26118 26119
 26120 26121 26122 26123 26124 26125 26126 26127 26128 26129 26130 26131 26132
 26133 26134 26135 26136 26137 26138 26139 26140 26141 26142 26143 26144 26145
 26146 26147 26148 26149 26150 26151 26152 26153 26154 26155 26156 26157 26158
 26159 26160 26161 26162 26163 26164 26165 26166 26167 26168 26169 26170 26171
 26172 26173 26174 26175 26176 26177 26178 26179 26180 26181 26182 26183 26184
 26185 26186 26187 26188 26189 26190 26191 26192 26193 26194 26195 26196 26197
 26198 26199 26200 26201 26202 26203 26204 26205 26206 26207 26208 26209 26210
 26211 26212 26213 26214 26215 26216 26217 26218 26219 26220 26221 26222 26223
 26224 26225 26226 26227 26228 26229 26230 26231 26232 26233 26234 26235 26236
 26237 26238 26239 26240 26241 26242 26243 26244 26245 26246 26247 26248 26249
 26250 26251 26252 26253 26254 26255 26256 26257 26258 26259 26260 26261 26262
 26263 26264 26265 26266 26267 26268 26269 26270 26271 26272 26273 26274 26275
 26276 26277 26278 26279 26280 26281 26282 26283 26284 26285 26286 26287 26288
 26289 26290 26291 26292 26293 26294 26295 26296 26297 26298 26299 26300 26301
 26302 26303 26304 26305 26306 26307 26308 26309 26310 26311 26312 26313 26314
 26315 26316 26317 26318 26319 26320 26321 26322 26323 26324 26325 26326 26327
 26328 26329 26330 26331 26332 26333 26334 26335 26336 26337 26338 26339 26340
 26341 26342 26343 26344 26345 26346 26347 26348 26349 26350 26351 26352 26353
 26354 26355 26356 26357 26358 26359 26360 26361 26362 26363 26364 26365 26366
 26367 26368 26369 26370 26371 26372 26373 26374 26375 26376 26377 26378 26379
 26380 26382 26395 26396 26397 26450 26451 26452 26453 26454 26455 26456 26457
 26458 26459 26460 26461 26462 26463 26464 26465 26466 26467 26468 26469 26470
 26471 26472 26473 26474 26475 26476 26477 26478 26479 26480 26481 26482 26483
 26501 26502 26504 26552 26553 26554 26555 26556 26557 26558 26559 26560 26561
 26562 26563 26564 26565 26566 26567 26568 26569 26570 26571 26572 26573 26574
 26575 26576 26577 26578 26579 26580 26581 26582 26583 26584 26585 26586 26587
 26588 26589 26590 26591 26592 26593 26594 26595 26596 26597 26598 26667 26668
 26669 26670 26671 26672 26673 26674 26675 26676 26677 26678 26679 26680 26681
 26682 26683 26684 26685 26686 26687 26688 26689 26690 26691 26692 26693 26694
 26695 26696 26697 26698 26699 26700 26701 26702 26703 26704 26705 26707 26708
 26709 26710 26711 26712 26713 26714 26736 26737 26738 26739 26740 26741 26742
 26743 26744 26745 26746 26747 26748 26749 26750 26751 26752 26753 26754 26755
 26756 26830 26831 26832 26833 26834 26835 26836 26837 26838 26839 26840 26841
 26842 26843 26844 26845 26846 26847 26848 26849 26850 26851 26852 26853 26854
 26855 26874 26875 26876 26877 26878 26879 26880 26881 26882 26883 26884 26885
 26886 26887 26888 26889 26890 26891 26902 26903 26904 26905 26906 26907 26908
 26909 26910 26950 26951 26952 26953 26954 26955 26956 26957 26958 26959 26960
 26961 26962 26963 26964 26965 26966 26984 26987 26992 26998 26999 27000 27001
 27002 27003 27004 27005 27006 27007 27008 27009 27010 27011 27012 27013 27014
 27015 27016 27017 27018 27019 27020 27021 27022 27023 27024 27025 27026 27027
 27028 27029 27030 27031 27032 27033 27034 27035 27036 27037 27038 27039 27040
 27041 27042 27043 27044 27045 27046 27047 27048 27049 27050 27051 27052 27053
 27054 27055 27056 27057 27058 27059 27060 27061 27062 27063 27064 27065 27066
 27067 27068 27069 27070 27071 27072 27073 27074 27075 27076 27077 27078 27079
 27080 27081 27082 27083 27084 27085 27086 27087 27088 27089 27090 27091 27092
 27093 27094 27095 27096 27097 27098 27099 27100 27101 27102 27103 27104 27105
 27106 27107 27108 27109 27110 27111 27112 27113 27114 27115 27116 27117 27118
 27119 27120 27121 27122 27123 27124 27125 27126 27127 27128 27129 27130 27131
 27132 27133 27134 27135 27136 27137 27138 27139 27140 27141 27142 27143 27144
 27145 27146 27147 27148 27149 27150 27151 27152 27153 27154 27155 27156 27157
 27159 27161 27162 27163 27164 27167 27174 27176 27177 27178 27179 27180 27181
 27182 27183 27184 27185 27186 27192 27193 27194 27195 27196 27197 27198 27199
 27200 27201 27203 27204 27206 27207 27208 27209 27210 27211 27213 27214 27215
 27216 27217 27218 27219 27220 27221 27222 27223 27224 27225 27226 27227 27228
 27229 27230 27231 27232 27233 27234 27235 27236 27237 27238 27239 27240 27241
 27242 27243 27244 27245 27246 27247 27248 27249 27250 27251 27252 27253 27254
 27255 27256 27257 27258 27259 27281 27282 27283 27284 27285 27286 27287 27288
 27289 27290 27291 27292 27293 27294 27295 27296 27297 27298 27299 27300 27301
 27328 27329 27330 27331 27332 27333 27334 27335 27336 27337 27338 27339 27340
 27344 27370 27371 27372 27373 27374 27375 27376 27377 27423 27424 27425 27426
 27427 27428 27429 27430 27431 27432 27433 27434 27435 27436 27437 27438 27440
 27441 27442 27443 27444 27445 27446 27447 27448 27449 27450 27451 27452 27453
 27454 27455 27456 27457 27458 27459 27460 27461 27462 27463 27464 27465 27466
 27467 27468 27469 27538 27539 27540 27541 27542 27543 27544 27545 27546 27547
 27548 27549 27550 27551 27552 27553 27554 27555 27556 27557 27558 27585 27586
 27587 27588 27589 27590 27591 27592 27593 27594 27595 27596 27597 27598 27599
 27600 27601 27602 27603 27604 27605 27675 27676 27677 27678 27679 27680 27681
 27682 27683 27684 27685 27686 27687 27688 27689 27690 27691 27692 27693 27695
 27696 27697 27698 27699 27700 27722 27723 27724 27725 27726 27727 27728 27729
 27730 27731 27732 27733 27734 27774 27775 27776 27777 27778 27779 27780 27781
 27785 27786 27787 27790 27802 27803 27804 27805 27806 27807 27808 27809 27810
 27811 27812 27813 27814 27815 27816 27817 27818 27819 27820 27821 27828 27830
 27831 27833 27834 27835 27836 27837 27838 27839 27840 27841 27842 27928 27929
 27930 27931 27932 27934 27935 27936 27937 27956 27957 27958 27959 28156 28157
 28158 28159 28160 28161 28162 28163 28164 28165 28166 28167 28168 28169 28170
 28171 28172 28173 28174 28175 28176 28177 28178 28179 28180 28181 28182 28183
 28184 28185 28186 28187 28188 28189 28190 28191 28192 28193 28194 28195 28196
 28197 28198 28199 28200 28201 28202 28203 28204 28205 28206 28207 28208 28209
 28210 28211 28212 28213 28214 28215 28216 28217 28218 28219 28220 28221 28222
 28223 28224 28225 28226 28227 28228 28229 28230 28231 28232 28233 28234 28235
 28236 28237 28238 28239 28240 28241 28242 28243 28244 28245 28246 28247 28248
 28249 28250 28251 28252 28253 28254 28255 28256 28257 28258 28259 28260 28261
 28262 28263 28264 28265 28266 28267 28268 28269 28270 28271 28272 28273 28274
 28275 28276 28277 28278 28279 28280 28281 28282 28283 28284 28285 28286 28287
 28288 28289 28290 28291 28292 28293 28294 28295 28296 28297 28298 28299 28300
 28301 28302 28303 28304 28305 28306 28307 28308 28309 28310 28311 28312 28313
 28314 28315 28316 28317 28318 28319 28320 28321 28322 28323 28324 28325 28326
 28327 28328 28329 28330 28331 28332 28333 28334 28335 28336 28337 28338 28339
 28340 28341 28342 28343 28344 28345 28346 28347 28348 28349 28350 28351 28352
 28353 28354 28355 28356 28357 28358 28359 28360 28361 28362 28363 28364 28365
 28366 28367 28368 28369 28370 28371 28372 28373 28374 28375 28376 28377 28378
 28379 28380 28381 28382 28383 28384 28385 28386 28387 28388 28389 28390 28391
 28392 28393 28394 28395 28396 28397 28398 28399 28400 28401 28402 28403 28404
 28405 28406 28407 28408 28409 28410 28411 28412 28413 28414 28415 28416 28417
 28418 28419 28420 28421 28422 28423 28424 28425 28426 28427 28428 28429 28430
 28431 28432 28433 28434 28435 28436 28437 28438 28439 28440 28441 28442 28443
 28444 28445 28446 28447 28448 28449 28450 28451 28452 28453 28454 28455 28456
 28457 28458 28459 28460 28461 28462 28463 28464 28465 28466 28467 28468 28469
 28470 28471 28472 28473 28474 28475 28476 28477 28478 28479 28480 28481 28482
 28483 28484 28485 28486 28487 28488 28489 28490 28491 28492 28493 28494 28495
 28496 28497 28498 28499 28500 28501 28502 28503 28504 28505 28506 28507 28508
 28509 28510 28511 28512 28513 28514 28515 28516 28517 28518 28519 28520 28521
 28522 28523 28524 28525 28526 28527 28528 28529 28530 28531 28532 28533 28534
 28535 28536 28537 28538 28539 28540 28541 28542 28543 28544 28545 28546 28547
 28548 28549 28550 28551 28552 28553 28554 28555 28556 28557 28558 28559 28560
 28561 28562 28563 28564 28565 28566 28567 28568 28569 28570 28571 28572 28573
 28574 28575 28576 28577 28578 28579 28580 28581 28582 28583 28584 28585 28586
 28587 28588 28589 28590 28591 28592 28593 28594 28595 28596 28597 28598 28599
 28600 28601 28602 28603 28604 28605 28606 28607 28608 28609 28610 28611 28612
 28613 28614 28615 28616 28617 28618 28619 28620 28621 28622 28623 28624 28625
 28626 28627 28628 28629 28630 28631 28632 28633 28634 28635 28636 28637 28638
 28639 28640 28641 28642 28643 28644 28645 28646 28647 28648 28649 28650 28651
 28652 28653 28654 28655 28656 28657 28658 28659 28660 28661 28662 28663 28664
 28665 28666 28667 28668 28669 28670 28671 28672 28673 28674 28675 28676 28677
 28678 28679 28680 28681 28682 28683 28684 28685 28686 28687 28688 28689 28690
 28691 28692 28693 28694 28695 28696 28697 28698 28699 28700 28701 28702 28703
 28704 28705 28706 28707 28708 28709 28710 28711 28712 28713 28714 28715 28716
 28717 28718 28719 28720 28721 28722 28723 28724 28725 28726 28727 28728 28729
 28730 28731 28732 28733 28734 28735 28736 28737 28738 28739 28740 28741 28742
 28743 28744 28745 28746 28747 28748 28749 28750 28751 28752 28753 28754 28755
 28756 28757 28758 28759 28760 28761 28762 28763 28764 28765 28766 28767 28768
 28769 28770 28771 28772 28773 28774 28775 28776 28777 28778 28779 28780 28781
 28782 28783 28784 28785 28786 28787 28788 28789 28790 28791 28792 28793 28794
 28795 28796 28797 28798 28799 28800 28801 28802 28803 28804 28805 28806 28807
 28808 28809 28810 28811 28812 28813 28814 28815 28816 28817 28818 28819 28820
 28821 28822 28823 28824 28825 28826 28827 28828 28829 28830 28831 28832 28833
 28834 28835 28836 28837 28838 28839 28840 28841 28842 28843 28844 28845 28846
 28847 28848 28849 28850 28851 28852 28853 28854 28855 28856 28857 28858 28859
 28860 28861 28862 28863 28864 28865 28866 28867 28868 28869 28870 28871 28872
 28873 28874 28875 28876 28877 28878 28879 28880 28881 28882 28883 28884 28885
 28886 28887 28888 28889 28890 28891 28892 28893 28894 28895 28896 28897 28898
 28899 28900 28901 28902 28903 28904 28905 28906 28907 28908 28909 28910 28911
 28912 28913 28914 28915 28916 28917 28918 28919 28920 28921 28922 28923 28924
 28925 28926 28927 28928 28929 28930 28931 28932 28933 28934 28935 28936 28937
 28938 28939 28940 28941 28942 28943 28944 28945 28946 28947 28948 28949 28950
 28951 28952 28953 28954 28955 28956 28957 28958 28959 28960 28961 28962 28963
 28964 28965 28966 28967 28968 28969 28970 28971 28972 28973 28974 28975 28976
 28977 28978 28979 28980 28981 28982 28983 28984 28985 28986 28987 28988 28989
 28990 28991 28992 28993 28994 28995 28996 28997 28998 28999 29000 29001 29002
 29003 29004 29005 29006 29007 29008 29009 29010 29011 29012 29013 29014 29015
 29016 29017 29018 29019 29020 29021 29022 29023 29024 29025 29026 29027 29028
 29029 29030 29031 29032 29033 29034 29035 29036 29037 29038 29039 29040 29041
 29042 29043 29044 29045 29046 29047 29048 29049 29050 29051 29052 29053 29054
 29055 29056 29057 29058 29059 29060 29061 29062 29063 29064 29065 29066 29067
 29068 29069 29070 29071 29072 29073 29074 29075 29076 29077 29078 29079 29080
 29081 29082 29083 29084 29085 29086 29087 29088 29089 29090 29091 29092 29093
 29094 29095 29096 29097 29098 29099 29100 29101 29102 29103 29104 29105 29106
 29107 29108 29109 29110 29111 29112 29113 29114 29115 29116 29117 29118 29119
 29120 29121 29122 29123 29124 29125 29126 29127 29128 29129 29130 29131 29132
 29133 29134 29135 29136 29137 29138 29139 29140 29141 29142 29143 29144 29145
 29146 29147 29148 29149 29150 29151 29152 29153 29154 29155 29156 29157 29158
 29159 29160 29161 29162 29163 29164 29165 29166 29167 29168 29169 29170 29171
 29172 29173 29174 29175 29176 29177 29178 29179 29180 29181 29182 29183 29184
 29185 29186 29187 29188 29189 29190 29191 29192 29193 29194 29195 29196 29197
 29198 29199 29200 29201 29202 29203 29204 29205 29206 29207 29208 29209 29210
 29211 29212 29213 29214 29215 29216 29217 29218 29219 29220 29221 29222 29223
 29224 29225 29226 29227 29228 29229 29230 29231 29232 29233 29234 29235 29236
 29237 29238 29239 29240 29241 29242 29243 29244 29245 29246 29247 29248 29249
 29250 29251 29252 29253 29254 29255 29256 29257 29258 29259 29260 29261 29262
 29263 29264 29265 29266 29267 29268 29269 29270 29271 29272 29273 29274 29275
 29276 29277 29278 29279 29280 29281 29282 29283 29284 29285 29286 29287 29288
 29289 29290 29291 29292 29293 29294 29295 29296 29297 29298 29299 29300 29301
 29302 29303 29304 29305 29306 29307 29308 29309 29310 29311 29312 29313 29314
 29315 29316 29317 29318 29319 29320 29321 29322 29323 29324 29325 29326 29327
 29328 29329 29330 29331 29332 29333 29334 29335 29336 29337 29338 29339 29340
 29341 29342 29343 29344 29345 29346 29347 29348 29349 29350 29351 29352 29353
 29354 29355 29356 29357 29358 29359 29360 29361 29362 29363 29364 29365 29366
 29367 29368 29369 29370 29371 29372 29373 29374 29375 29376 29377 29378 29379
 29380 29381 29382 29383 29384 29385 29386 29387 29388 29389 29390 29391 29392
 29393 29394 29395 29396 29397 29398 29399 29400 29401 29402 29403 29404 29405
 29406 29407 29408 29409 29410 29411 29412 29413 29414 29415 29416 29417 29418
 29419 29420 29421 29422 29423 29424 29425 29426 29427 29428 29429 29430 29431
 29432 29433 29434 29435 29436 29437 29438 29439 29440 29441 29442 29443 29444
 29445 29446 29447 29448 29449 29450 29451 29452 29453 29454 29455 29456 29457
 29458 29459 29460 29461 29462 29463 29464 29465 29466 29467 29468 29469 29470
 29471 29472 29473 29474 29475 29476 29477 29478 29479 29480 29481 29482 29483
 29484 29485 29486 29487 29488 29489 29490 29491 29492 29493 29494 29495 29496
 29497 29498 29499 29500 29501 29502 29503 29504 29505 29506 29507 29508 29509
 29510 29511 29512 29513 29514 29515 29516 29517 29518 29519 29520 29521 29522
 29523 29524 29525 29526 29527 29528 29529 29530 29531 29532 29533 29534 29535
 29536 29537 29538 29539 29540 29541 29542 29543 29544 29545 29546 29547 29548
 29549 29550 29551 29552 29553 29554 29555 29556 29557 29558 29559 29560 29561
 29562 29563 29564 29565 29566 29567 29568 29569 29570 29571 29572 29573 29574
 29575 29576 29577 29578 29579 29580 29581 29582 29583 29584 29585 29586 29587
 29588 29589 29590 29591 29592 29593 29594 29595 29596 29597 29598 29599 29600
 29601 29602 29603 29604 29605 29606 29607 29608 29609 29610 29611 29612 29613
 29614 29615 29616 29617 29618 29619 29620 29621 29622 29623 29624 29625 29626
 29627 29628 29629 29630 29631 29632 29633 29634 29635 29636 29637 29638 29639
 29640 29641 29642 29643 29644 29645 29646 29647 29648 29649 29650 29651 29652
 29653 29654 29655 29656 29657 29658 29659 29660 29661 29662 29663 29664 29665
 29666 29667 29668 29669 29670 29671 29672 29673 29674 29675 29676 29677 29678
 29679 29680 29681 29682 29683 29684 29685 29686 29687 29688 29689 29690 29691
 29692 29693 29694 29695 29696 29697 29698 29699 29700 29701 29702 29703 29704
 29705 29706 29707 29708 29709 29710 29711 29712 29713 29714 29715 29716 29717
 29718 29719 29720 29721 29722 29723 29724 29725 29726 29727 29728 29729 29730
 29731 29732 29733 29734 29735 29736 29737 29738 29739 29740 29741 29742 29743
 29744 29745 29746 29747 29748 29749 29750 29751 29752 29753 29754 29755 29756
 29757 29758 29759 29760 29761 29762 29763 29764 29765 29766 29767 29768 29769
 29770 29771 29772 29773 29774 29775 29776 29777 29778 29779 29780 29781 29782
 29783 29784 29785 29786 29787 29788 29789 29790 29791 29792 29793 29794 29795
 29796 29797 29798 29799 29800 29801 29802 29803 29804 29805 29806 29807 29808
 29809 29810 29811 29812 29813 29814 29815 29816 29817 29818 29819 29820 29821
 29822 29823 29824 29825 29826 29827 29828 29829 29830 29831 29832 29833 29834
 29835 29836 29837 29838 29839 29840 29841 29842 29843 29844 29845 29846 29847
 29848 29849 29850 29851 29852 29853 29854 29855 29856 29857 29858 29859 29860
 29861 29862 29863 29864 29865 29866 29867 29868 29869 29870 29871 29872 29873
 29874 29875 29876 29877 29878 29879 29880 29881 29882 29883 29884 29885 29886
 29887 29888 29889 29890 29891 29892 29893 29894 29895 29896 29897 29898 29899
 29900 29901 29902 29903 29904 29905 29906 29907 29908 29909 29910 29911 29912
 29913 29914 29915 29916 29917 29918 29919 29920 29921 29922 29923 29924 29925
 29926 29927 29928 29929 29930 29931 29932 29933 29934 29935 29936 29937 29938
 29939 29940 29941 29942 29943 29944 29945 29946 29947 29948 29949 29950 29951
 29952 29953 29954 29955 29956 29957 29958 29959 29960 29961 29962 29963 29964
 29965 29966 29967 29968 29969 29970 29971 29972 29973 29974 29975 29976 29977
 29978 29979 29980 29981 29982 29983 29984 29985 29986 29987 29988 29989 29990
 29991 29992 29993 29994 29995 29996 29997 29998 29999 30000 30001 30002 30003
 30004 30005 30006 30007 30008 30009 30010 30011 30012 30013 30014 30015 30016
 30017 30018 30019 30020 30021 30022 30023 30024 30025 30026 30027 30028 30029
 30030 30031 30032 30033 30034 30035 30036 30037 30038 30039 30040 30041 30042
 30043 30044 30045 30046 30047 30048 30049 30050 30051 30052 30053 30054 30055
 30056 30057 30058 30059 30060 30061 30062 30063 30064 30065 30066 30067 30068
 30069 30070 30071 30072 30073 30074 30075 30076 30077 30078 30079 30080 30081
 30082 30083 30084 30085 30086 30087 30088 30089 30090 30091 30092 30093 30094
 30095 30096 30097 30098 30099 30100 30101 30102 30103 30104 30105 30106 30107
 30108 30109 30110 30111 30112 30113 30114 30115 30116 30117 30118 30119 30120
 30121 30122 30123 30124 30125 30126 30127 30128 30129 30130 30131 30132 30133
 30134 30135 30136 30137 30138 30139 30140 30141 30142 30143 30144 30145 30146
 30147 30148 30149 30150 30151 30152 30153 30154 30155 30156 30157 30158 30159
 30160 30161 30162 30163 30164 30165 30166 30167 30168 30169 30170 30171 30172
 30173 30174 30175 30176 30177 30178 30179 30180 30181 30182 30183 30184 30185
 30186 30187 30188 30189 30190 30191 30192 30193 30194 30195 30196 30197 30198
 30199 30200 30201 30202 30203 30204 30205 30206 30207 30208 30209 30210 30211
 30212 30213 30214 30215 30216 30217 30218 30219 30220 30221 30222 30223 30224
 30225 30226 30227 30228 30229 30230 30231 30232 30233 30234 30235 30236 30237
 30238 30239 30240 30241 30242 30243 30244 30245 30246 30247 30248 30249 30250
 30251 30252 30253 30254 30255 30256 30257 30258 30259 30260 30261 30262 30263
 30264 30265 30266 30267 30268 30269 30270 30271 30272 30273 30274 30275 30276
 30277 30278 30279 30280 30281 30282 30283 30284 30285 30286 30287 30288 30289
 30290 30291 30292 30293 30294 30295 30296 30297 30298 30299 30300 30301 30302
 30303 30304 30305 30306 30307 30308 30309 30310 30311 30312 30313 30314 30315
 30316 30317 30318 30319 30320 30321 30322 30323 30324 30325 30326 30327 30328
 30329 30330 30331 30332 30333 30334 30335 30336 30337 30338 30339 30340 30341
 30342 30343 30344 30345 30346 30347 30348 30349 30350 30351 30352 30353 30354
 30355 30356 30357 30358 30359 30360 30361 30362 30363 30364 30365 30366 30367
 30368 30369 30370 30371 30372 30373 30374 30375 30376 30377 30378 30379 30380
 30381 30382 30383 30384 30385 30386 30387 30388 30389 30390 30391 30392 30393
 30394 30395 30396 30397 30398 30399 30400 30401 30402 30403 30404 30405 30406
 30407 30408 30409 30410 30411 30412 30413 30414 30415 30416 30417 30418 30419
 30420 30421 30422 30423 30424 30425 30426 30427 30428 30429 30430 30431 30432
 30433 30434 30435 30436 30437 30438 30439 30440 30441 30442 30443 30444 30445
 30446 30447 30448 30449 30450 30451 30452 30453 30454 30455 30456 30457 30458
 30459 30460 30461 30462 30463 30464 30465 30466 30467 30468 30469 30470 30471
 30472 30473 30474 30475 30476 30477 30478 30479 30480 30481 30482 30483 30484
 30485 30486 30487 30488 30489 30490 30491 30492 30493 30494 30495 30496 30497
 30498 30499 30500 30501 30502 30503 30504 30505 30506 30507 30508 30509 30510
 30511 30512 30513 30514 30515 30516 30517 30518 30519 30520 30521 30522 30523
 30524 30525 30526 30527 30528 30529 30530 30531 30532 30533 30534 30535 30536
 30537 30538 30539 30540 30541 30542 30543 30544 30545 30546 30547 30548 30549
 30550 30551 30552 30553 30554 30555 30556 30557 30558 30559 30560 30561 30562
 30563 30564 30565 30566 30567 30568 30569 30570 30571 30572 30573 30574 30575
 30576 30577 30578 30579 30580 30581 30582 30583 30584 30585 30586 30587 30588
 30589 30590 30591 30592 30593 30594 30595 30596 30597 30598 30599 30600 30601
 30602 30603 30604 30605 30606 30607 30608 30609 30610 30611 30612 30613 30614
 30615 30616 30617 30618 30619 30620 30621 30622 30623 30624 30625 30626 30627
 30628 30629 30630 30631 30632 30633 30634 30635 30636 30637 30638 30639 30640
 30641 30642 30643 30644 30645 30646 30647 30648 30649 30650 30651 30652 30653
 30654 30655 30656 30657 30658 30659 30660 30661 30662 30663 30664 30665 30666
 30667 30668 30669 30670 30671 30672 30673 30674 30675 30676 30677 30678 30679
 30680 30681 30682 30683 30684 30685 30686 30687 30688 30689 30690 30691 30692
 30693 30694 30695 30696 30697 30698 30699 30700 30701 30702 30703 30704 30705
 30706 30707 30708 30709 30710 30711 30712 30713 30714 30715 30716 30717 30718
 30719 30720 30721 30722 30723 30724 30725 30726 30727 30728 30729 30730 30731
 30732 30733 30734 30735 30736 30737 30738 30739 30740 30741 30742 30743 30744
 30745 30746 30747 30748 30749 30750 30751 30752 30753 30754 30755 30756 30757
 30758 30759 30760 30761 30762 30763 30764 30765 30766 30767 30768 30769 30770
 30771 30772 30773 30774 30775 30776 30777 30778 30779 30780 30781 30782 30783
 30784 30785 30786 30787 30788 30789 30790 30791 30792 30793 30794 30795 30796
 30797 30798 30799 30800 30801 30802 30803 30804 30805 30806 30807 30808 30809
 30810 30811 30812 30813 30814 30815 30816 30817 30818 30819 30820 30821 30822
 30823 30824 30825 30826 30827 30828 30829 30830 30831 30832 30833 30834 30835
 30836 30837 30838 30839 30840 30841 30842 30843 30844 30845 30846 30847 30848
 30849 30850 30851 30852 30853 30854 30855 30856 30857 30858 30859 30860 30861
 30862 30863 30864 30865 30866 30867 30868 30869 30870 30871 30872 30873 30874
 30875 30876 30877 30878 30879 30880 30881 30882 30883 30884 30885 30886 30887
 30888 30889 30890 30891 30892 30893 30894 30895 30896 30897 30898 30899 30900
 30901 30902 30903 30904 30905 30906 30907 30908 30909 30910 30911 30912 30913
 30914 30915 30916 30917 30918 30919 30920 30921 30922 30923 30924 30925 30926
 30927 30928 30929 30930 30931 30932 30933 30934 30935 30936 30937 30938 30939
 30940 30941 30942 30943 30944 30945 30946 30947 30948 30949 30950 30951 30952
 30953 30954 30955 30956 30957 30958 30959 30960 30961 30962 30963 30964 30965
 30966 30967 30968 30969 30970 30971 30972 30973 30974 30975 30976 30977 30978
 30979 30980 30981 30982 30983 30984 30985 30986 30987 30988 30989 30990 30991
 30992 30993 30994 30995 30996 30997 30998 30999 31000 31001 31002 31003 31004
 31005 31006 31007 31008 31009 31010 31011 31012 31013 31014 31015 31016 31017
 31018 31019 31020 31021 31022 31023 31024 31025 31026 31027 31028 31029 31030
 31031 31032 31033 31034 31035 31036 31037 31038 31039 31040 31041 31042 31043
 31044 31045 31046 31047 31048 31049 31050 31051 31052 31053 31054 31055 31056
 31057 31058 31059 31060 31061 31062 31063 31064 31065 31066 31067 31068 31069
 31070 31071 31072 31073 31074 31075 31076 31077 31078 31079 31080 31081 31082
 31083 31084 31085 31086 31087 31088 31089 31090 31091 31092 31093 31094 31095
 31096 31097 31098 31099 31100 31101 31102 31103 31104 31105 31106 31107 31108
 31109 31110 31111 31112 31113 31114 31115 31116 31117 31118 31119 31120 31121
 31122 31123 31124 31125 31126 31127 31128 31129 31130 31131 31132 31133 31134
 31135 31136 31137 31138 31139 31140 31141 31142 31143 31144 31145 31146 31147
 31148 31149 31150 31151 31152 31153 31154 31155 31156 31157 31158 31159 31160
 31161 31162 31163 31164 31165 31166 31167 31168 31169 31170 31171 31172 31173
 31174 31175 31176 31177 31178 31179 31180 31181 31182 31183 31184 31185 31186
 31187 31188 31189 31190 31191 31192 31193 31194 31195 31196 31197 31198 31199
 31200 31201 31202 31203 31204 31205 31206 31207 31208 31209 31210 31211 31212
 31213 31214 31215 31216 31217 31218 31219 31220 31221 31222 31223 31224 31225
 31226 31227 31228 31229 31230 31231 31232 31233 31234 31235 31236 31237 31238
 31239 31240 31241 31242 31243 31244 31245 31246 31247 31248 31249 31250 31251
 31252 31253 31254 31255 31256 31257 31258 31259 31260 31261 31262 31263 31264
 31265 31266 31267 31268 31269 31270 31271 31272 31273 31274 31275 31276 31277
 31278 31279 31280 31281 31282 31283 31284 31285 31286 31287 31288 31289 31290
 31291 31292 31293 31294 31295 31296 31297 31298 31299 31300 31301 31302 31303
 31304 31305 31306 31307 31308 31309 31310 31311 31312 31313 31314 31315 31316
 31317 31318 31319 31320 31321 31322 31323 31324 31325 31326 31327 31328 31329
 31330 31331 31332 31333 31334 31335 31336 31337 31338 31339 31340 31341 31342
 31343 31344 31345 31346 31347 31348 31349 31350 31351 31352 31353 31354 31355
 31356 31357 31358 31359 31360 31361 31362 31363 31364 31365 31366 31367 31368
 31369 31370 31371 31372 31373 31374 31375 31376 31377 31378 31379 31380 31381
 31382 31383 31384 31385 31386 31387 31388 31389 31390 31391 31392 31393 31394
 31395 31396 31397 31398 31399 31400 31401 31402 31403 31404 31405 31406 31407
 31408 31409 31410 31411 31412 31413 31414 31415 31416 31417 31418 31419 31420
 31421 31422 31423 31424 31425 31426 31427 31428 31429 31430 31431 31432 31433
 31434 31435 31436 31437 31438 31439 31440 31441 31442 31443 31444 31445 31446
 31447 31448 31449 31450 31451 31452 31453 31454 31455 31456 31457 31458 31459
 31460 31461 31462 31463 31464 31465 31466 31467 31468 31469 31470 31471 31472
 31473 31474 31475 31476 31477 31478 31479 31480 31481 31482 31483 31484 31485
 31486 31487 31488 31489 31490 31491 31492 31493 31494 31495 31496 31497 31498
 31499 31500 31501 31502 31503 31504 31505 31506 31507 31508 31509 31510 31511
 31512 31513 31514 31515 31516 31517 31518 31519 31520 31521 31522 31523 31524
 31525 31526 31527 31528 31529 31530 31531 31532 31533 31534 31535 31536 31537
 31538 31539 31540 31541 31542 31543 31544 31545 31546 31547 31548 31549 31550
 31551 31552 31553 31554 31555 31556 31557 31558 31559 31560 31561 31562 31563
 31564 31565 31566 31567 31568 31569 31570 31571 31572 31573 31574 31575 31576
 31577 31578 31579 31580 31581 31582 31583 31584 31585 31586 31587 31588 31589
 31590 31591 31592 31593 31594 31595 31596 31597 31598 31599 31600 31601 31602
 31603 31604 31605 31606 31607 31608 31609 31610 31611 31612 31613 31614 31615
 31616 31617 31618 31619 31620 31621 31622 31623 31624 31625 31626 31627 31628
 31629 31630 31631 31632 31633 31634 31635 31636 31637 31638 31639 31640 31641
 31642 31643 31644 31645 31646 31647 31648 31649 31650 31651 31652 31653 31654
 31655 31656 31657 31658 31659 31660 31661 31662 31663 31664 31665 31666 31667
 31668 31669 31670 31671 31672 31673 31674 31675 31676 31677 31678 31679 31680
 31681 31682 31683 31684 31685 31686 31687 31688 31689 31690 31691 31692 31693
 31694 31695 31696 31697 31698 31699 31700 31701 31702 31703 31704 31705 31706
 31707 31708 31709 31710 31711 31712 31713 31714 31715 31716 31717 31718 31719
 31720 31721 31722 31723 31724 31725 31726 31727 31728 31729 31730 31731 31732
 31733 31734 31735 31736 31737 31738 31739 31740 31741 31742 31743 31744 31745
 31746 31747 31748 31749 31750 31751 31752 31753 31754 31755 31756 31757 31758
 31759 31760 31761 31762 31763 31764 31765 31766 31767 31768 31769 31770 31771
 31772 31773 31774 31775 31776 31777 31778 31779 31780 31781 31782 31783 31784
 31785 31786 31787 31788 31789 31790 31791 31792 31793 31794 31795 31796 31797
 31798 31799 31800 31801 31802 31803 31804 31805 31806 31807 31808 31809 31810
 31811 31812 31813 31814 31815 31816 31817 31818 31819 31820 31821 31822 31823
 31824 31825 31826 31827 31828 31829 31830 31831 31832 31833 31834 31835 31836
 31837 31838 31839 31840 31841 31842 31843 31844 31845 31846 31847 31848 31849
 31850 31851 31852 31853 31854 31855 31856 31857 31858 31859 31860 31861 31862
 31863 31864 31865 31866 31867 31868 31869 31870 31871 31872 31873 31874 31875
 31876 31877 31878 31879 31880 31881 31882 31883 31884 31885 31886 31887 31888
 31889 31890 31891 31892 31893 31894 31895 31896 31897 31898 31899 31900 31901
 31902 31903 31904 31905 31906 31907 31908 31909 31910 31911 31912 31913 31914
 31915 31916 31917 31918 31919 31920 31921 31922 31923 31924 31925 31926 31927
 31928 31929 31930 31931 31932 31933 31934 31935 31936 31937 31938 31939 31940
 31941 31942 31943 31944 31945 31946 31947 31948 31949 31950 31951 31952 31953
 31954 31955 31956 31957 31958 31959 31960 31961 31962 31963 31964 31965 31966
 31967 31968 31969 31970 31971 31972 31973 31974 31975 31976 31977 31978 31979
 31980 31981 31982 31983 31984 31985 31986 31987 31988 31989 31990 31991 31992
 31993 31994 31995 31996 31997 31998 31999 32000 32001 32002 32003 32004 32005
 32006 32007 32008 32009 32010 32011 32012 32013 32014 32015 32016 32017 32018
 32019 32020 32021 32022 32023 32024 32025 32026 32027 32028 32029 32030 32031
 32032 32033 32034 32035 32036 32037 32038 32039 32040 32041 32042 32043 32044
 32045 32046 32047 32048 32049 32050 32051 32052 32053 32054 32055 32056 32057
 32058 32059 32060 32061 32062 32063 32064 32065 32066 32067 32068 32069 32070
 32071 32072 32073 32074 32075 32076 32077 32078 32079 32080 32081 32082 32083
 32084 32085 32086 32087 32088 32089 32090 32091 32092 32093 32094 32095 32096
 32097 32098 32099 32100 32101 32102 32103 32104 32105 32106 32107 32108 32109
 32110 32111 32112 32113 32114 32115 32116 32117 32118 32119 32120 32121 32122
 32123 32124 32125 32126 32127 32128 32129 32130 32131 32132 32133 32134 32135
 32136 32137 32138 32139 32140 32141 32142 32143 32144 32145 32146 32147 32148
 32149 32150 32151 32152 32153 32154 32155 32156 32157 32158 32159 32160 32161
 32162 32163 32164 32165 32166 32167 32168 32169 32170 32171 32172 32173 32174
 32175 32176 32177 32178 32179 32180 32181 32182 32183 32184 32185 32186 32187
 32188 32189 32190 32191 32192 32193 32194 32195 32196 32197 32198 32199 32200
 32201 32202 32203 32204 32205 32206 32207 32208 32209 32210 32211 32212 32213
 32214 32215 32216 32217 32218 32219 32220 32221 32222 32223 32224 32225 32226
 32227 32228 32229 32230 32231 32232 32233 32234 32235 32236 32237 32238 32239
 32240 32241 32242 32243 32244 32245 32246 32247 32248 32249 32250 32251 32252
 32253 32254 32255 32256 32257 32258 32259 32260 32261 32262 32263 32264 32265
 32266 32267 32268 32269 32270 32271 32272 32273 32274 32275 32276 32277 32278
 32279 32280 32281 32282 32283 32284 32285 32286 32287 32288 32289 32290 32291
 32292 32293 32294 32295 32296 32297 32298 32299 32300 32301 32302 32303 32304
 32305 32306 32307 32308 32309 32310 32311 32312 32313 32314 32315 32316 32317
 32318 32319 32320 32321 32322 32323 32324 32325 32326 32327 32328 32329 32330
 32331 32332 32333 32334 32335 32336 32337 32338 32339 32340 32341 32342 32343
 32344 32345 32346 32347 32348 32349 32350 32351 32352 32353 32354 32355 32356
 32357 32358 32359 32360 32361 32362 32363 32364 32365 32366 32367 32368 32369
 32370 32371 32372 32373 32374 32375 32376 32377 32378 32379 32380 32381 32382
 32383 32384 32385 32386 32387 32388 32389 32390 32391 32392 32393 32394 32395
 32396 32397 32398 32399 32400 32401 32402 32403 32404 32405 32406 32407 32408
 32409 32410 32411 32412 32413 32414 32415 32416 32417 32418 32419 32420 32421
 32422 32423 32424 32425 32426 32427 32428 32429 32430 32431 32432 32433 32434
 32435 32436 32437 32438 32439 32440 32441 32442 32443 32444 32445 32446 32447
 32448 32449 32450 32451 32452 32453 32454 32455 32456 32457 32458 32459 32460
 32461 32462 32463 32464 32465 32466 32467 32468 32469 32470 32471 32472 32473
 32474 32475 32476 32477 32478 32479 32480 32481 32482 32483 32484 32485 32486
 32487 32488 32489 32490 32491 32492 32493 32494 32495 32496 32497 32498 32499
 32500 32501 32502 32503 32504 32505 32506 32507 32508 32509 32510 32511 32512
 32513 32514 32515 32516 32517 32518 32519 32520 32521 32522 32523 32524 32525
 32526 32527 32528 32529 32530 32531 32532 32533 32534 32535 32536 32537 32538
 32539 32540 32541 32542 32543 32544 32545 32546 32547 32548 32549 32550 32551
 32552 32553 32554 32555 32556 32557 32558 32559 32560 32561 32562 32563 32564
 32565 32566 32567 32568 32569 32570 32571 32572 32573 32574 32575 32576 32577
 32578 32579 32580 32581 32582 32583 32584 32585 32586 32587 32588 32589 32590
 32591 32592 32593 32594 32595 32596 32597 32598 32599 32600 32601 32602 32603
 32604 32605 32606 32607 32608 32609 32610 32611 32612 32613 32614 32615 32616
 32617 32618 32619 32620 32621 32622 32623 32624 32625 32626 32627 32628 32629
 32630 32631 32632 32633 32634 32635 32636 32637 32638 32639 32640 32641 32642
 32643 32644 32645 32646 32647 32648 32649 32650 32651 32652 32653 32654 32655
 32656 32657 32658 32659 32660 32661 32662 32663 32664 32665 32666 32667 32668
 32669 32670 32671 32672 32673 32674 32675 32676 32677 32678 32679 32680 32681
 32682 32683 32684 32685 32686 32687 32688 32689 32690 32691 32692 32693 32694
 32695 32696 32697 32698 32699 32700 32701 32702 32703 32704 32705 32706 32707
 32708 32709 32710 32711 32712 32713 32714 32715 32716 32717 32718 32719 32720
 32721 32722 32723 32724 32725 32726 32727 32728 32729 32730 32731 32732 32733
 32734 32735 32736 32737 32738 32739 32740 32741 32742 32743 32744 32745 32746
 32747 32748 32749 32750 32751 32752 32753 32754 32755 32756 32757 32758 32759
 32760 32761 32762 32763 32764 32765 32766 32767 32768 32769 32770 32771 32772
 32773 32774 32775 32776 32777 32778 32779 32780 32781 32782 32783 32784 32785
 32786 32787 32788 32789 32790 32791 32792 32793 32794 32795 32796 32797 32798
 32799 32800 32801 32802 32803 32804 32805 32806 32807 32808 32809 32810 32811
 32812 32813 32814 32815 32816 32817 32818 32819 32820 32821 32822 32823 32824
 32825 32826 32827 32828 32829 32830 32831 32832 32833 32834 32835 32836 32837
 32838 32839 32840 32841 32842 32843 32844 32845 32846 32847 32848 32849 32850
 32851 32852 32853 32854 32855 32856 32857 32858 32859 32860 32861 32862 32863
 32864 32865 32866 32867 32868 32869 32870 32871 32872 32873 32874 32875 32876
 32877 32878 32879 32880 32881 32882 32883 32884 32885 32886 32887 32888 32889
 32890 32891 32892 32893 32894 32895 32896 32897 32898 32899 32900 32901 32902
 32903 32904 32905 32906 32907 32908 32909 32910 32911 32912 32913 32914 32915
 32916 32917 32918 32919 32920 32921 32922 32923 32924 32925 32926 32927 32928
 32929 32930 32931 32932 32933 32934 32935 32936 32937 32938 32939 32940 32941
 32942 32943 32944 32945 32946 32947 32948 32949 32950 32951 32952 32953 32954
 32955 32956 32957 32958 32959 32960 32961 32962 32963 32964 32965 32966 32967
 32968 32969 32970 32971 32972 32973 32974 32975 32976 32977 32978 32979 32980
 32981 32982 32983 32984 32985 32986 32987 32988 32989 32990 32991 32992 32993
 32994 32995 32996 32997 32998 32999 33000 33001 33002 33003 33004 33005 33006
 33007 33008 33009 33010 33011 33012 33013 33014 33015 33016 33017 33018 33019
 33020 33021 33022 33023 33024 33025 33026 33027 33028 33029 33030 33031 33032
 33033 33034 33035 33036 33037 33038 33039 33040 33041 33042 33043 33044 33045
 33046 33047 33048 33049 33050 33051 33052 33053 33054 33055 33056 33057 33058
 33059 33060 33061 33062 33063 33064 33065 33066 33067 33068 33069 33070 33071
 33072 33073 33074 33075 33076 33077 33078 33079 33080 33081 33082 33083 33084
 33085 33086 33087 33088 33089 33090 33091 33092 33093 33094 33095 33096 33097
 33098 33099 33100 33101 33102 33103 33104 33105 33106 33107 33108 33109 33110
 33111 33112 33113 33114 33115 33116 33117 33118 33119 33120 33121 33122 33123
 33124 33125 33126 33127 33128 33129 33130 33131 33132 33133 33134 33135 33136
 33137 33138 33139 33140 33141 33142 33143 33144 33145 33146 33147 33148 33149
 33150 33151 33152 33153 33154 33155 33156 33157 33158 33159 33160 33161 33162
 33163 33164 33165 33166 33167 33168 33169 33170 33171 33172 33173 33174 33175
 33176 33177 33178 33179 33180 33181 33182 33183 33184 33185 33186 33187 33188
 33189 33190 33191 33192 33193 33194 33195 33196 33197 33198 33199 33200 33201
 33202 33203 33204 33205 33206 33207 33208 33209 33210 33211 33212 33213 33214
 33215 33216 33217 33218 33219 33220 33221 33222 33223 33224 33225 33226 33227
 33228 33229 33230 33231 33232 33233 33234 33235 33236 33237 33238 33239 33240
 33241 33242 33243 33244 33245 33246 33247 33248 33249 33250 33251 33252 33253
 33254 33255 33256 33257 33258 33259 33260 33261 33262 33263 33264 33265 33266
 33267 33268 33269 33270 33271 33272 33273 33274 33275 33276 33277 33278 33279
 33280 33281 33282 33283 33284 33285 33286 33287 33288 33289 33290 33291 33292
 33293 33294 33295 33296 33297 33298 33299 33300 33301 33302 33303 33304 33305
 33306 33307 33308 33309 33310 33311 33312 33313 33314 33315 33316 33317 33318
 33319 33320 33321 33322 33323 33324 33325 33326 33327 33328 33329 33330 33331
 33332 33333 33334 33335 33336 33337 33338 33339 33340 33341 33342 33343 33344
 33345 33346 33347 33348 33349 33350 33351 33352 33353 33354 33355 33356 33357
 33358 33359 33360 33361 33362 33363 33364 33365 33366 33367 33368 33369 33370
 33371 33372 33373 33374 33375 33376 33377 33378 33379 33380 33381 33382 33383
 33384 33385 33386 33387 33388 33389 33390 33391 33392 33393 33394 33395 33396
 33397 33398 33399 33400 33401 33402 33403 33404 33405 33406 33407 33408 33409
 33410 33411 33412 33413 33414 33415 33416 33417 33418 33419 33420 33421 33422
 33423 33424 33425 33426 33427 33428 33429 33430 33431 33432 33433 33434 33435
 33436 33437 33438 33439 33440 33441 33442 33443 33444 33445 33446 33447 33448
 33449 33450 33451 33452 33453 33454 33455 33456 33457 33458 33459 33460 33461
 33462 33463 33464 33477 33478 33479 33480 33481 33482 33483 33484 33485 33486
 33487 33488 33489 33490 33491 33492 33493 33494 33495 33496 33497 33498 33499
 33500 33501 33502 33503 33504 33505 33506 33507 33508 33509 33510 33511 33512
 33513 33514 33515 33516 33517 33518 33519 33520 33522 33523 33524 33525 33526
 33527 33528 33529 33530 33531 33532 33533 33534 33535 33536 33537 33538 33539
 33540 33541 33542 33543 33544 33572 33573 33574 33575 33576 33577 33578 33579
 33580 33581 33582 33583 33584 33585 33586 33587 33588 33589 33590 33591 33592
 33593 33594 33595 33596 33597 33598 33599 33600 33601 33602 33603 33604 33605
 33606 33607 33608 33609 33610 33611 33612 33613 33614 33615 33616 33617 33618
 33619 33620 33621 33622 33623 33624 33625 33626 33627 33628 33629 33630 33631
 33632 33633 33634 33635 33636 33637 33638 33639 33640 33641 33642 33643 33644
 33645 33647 33650 33668 33707 33709 33710 33711 33712 33713 33714 33715 33716
 33717 33718 33719 33720 33721 33722 33723 33724 33725 33726 33727 33728 33729
 33730 33731 33732 33733 33734 33735 33736 33737 33738 33739 33740 33741 33742
 33743 33744 33745 33746 33747 33748 33749 33750 33751 33752 33753 33754 33755
 33756 33757 33758 33759 33760 33761 33762 33763 33764 33765 33766 33767 33768
 33769 33770 33771 33772 33773 33774 33775 33776 33777 33778 33779 33780 33781
 33782 33783 33784 33785 33786 33787 33788 33789 33790 33791 33792 33793 33794
 33795 33796 33797 33798 33799 33800 33801 33802 33803 33804 33805 33806 33807
 33808 33809 33810 33811 33812 33813 33814 33815 33816 33817 33818 33819 33820
 33821 33822 33823 33824 33825 33826 33827 33828 33829 33830 33831 33832 33833
 33834 33835 33836 33837 33838 33839 33840 33841 33842 33843 33844 33845 33846
 33847 33848 33849 33850 33851 33852 33853 33854 33855 33856 33857 33858 33859
 33860 33861 33862 33863 33864 33865 33866 33867 33868 33869 33870 33871 33872
 33873 33874 33875 33876 33877 33878 33879 33880 33881 33882 33883 33884 33885
 33886 33887 33888 33889 33890 33891 33892 33893 33894 33895 33896 33897 33898
 33899 33900 33901 33902 33903 33904 33905 33906 33907 33908 33909 33910 33911
 33912 33913 33914 33915 33916 33917 33918 33919 33920 33921 33922 33923 33924
 33925 33926 33927 33928 33929 33930 33931 33932 33933 33934 33935 33936 33937
 33938 33939 33940 33941 33942 33943 33944 33945 33946 33947 33948 33949 33950
 33951 33952 33953 33954 33955 33956 33957 33958 33959 33960 33961 33962 33963
 33964 33965 33966 33967 33968 33969 33970 33971 33972 33973 33974 33975 33976
 33977 33978 33979 33980 33981 33982 33983 33984 33985 33986 33987 33988 33989
 33990 33991 33992 33993 33994 33995 33996 33997 33998 33999 34000 34001 34002
 34003 34004 34005 34006 34007 34008 34009 34010 34011 34012 34013 34014 34015
 34016 34017 34018 34019 34020 34021 34022 34023 34024 34025 34026 34027 34028
 34029 34030 34031 34032 34033 34034 34035 34036 34037 34038 34039 34040 34041
 34042 34043 34044 34045 34046 34047 34048 34049 34050 34051 34052 34053 34054
 34055 34056 34057 34058 34059 34060 34061 34062 34063 34064 34065 34066 34067
 34068 34069 34070 34071 34072 34073 34074 34075 34076 34077 34078 34080 34081
 34082 34083 34084 34085 34086 34087 34093 34098 34099 34100 34101 34102 34103
 34104 34105 34106 34107 34108 34109 34110 34111 34112 34113 34114 34115 34116
 34117 34118 34119 34120 34121 34122 34123 34124 34125 34126 34127 34128 34129
 34130 34131 34132 34133 34134 34135 34136 34137 34138 34139 34140 34141 34142
 34143 34144 34145 34146 34147 34148 34149 34150 34151 34152 34153 34154 34155
 34156 34157 34158 34159 34160 34161 34162 34163 34164 34165 34166 34167 34168
 34169 34170 34171 34172 34173 34174 34175 34176 34177 34178 34179 34180 34181
 34182 34183 34184 34185 34186 34187 34188 34189 34190 34191 34192 34193 34194
 34195 34196 34197 34198 34199 34200 34201 34202 34207 34230 34231 34232 34233
 34234 34235 34236 34237 34238 34239 34240 34241 34242 34243 34244 34245 34246
 34247 34248 34249 34250 34251 34252 34253 34254 34255 34256 34276 34278 34306
 34314 34315 34316 34317 34318 34319 34320 34321 34322 34323 34324 34325 34326
 34327 34328 34330 34331 34332 34337 34338 34339 34340 34349 34350 34351 34352
 34356 34357 34358 34359 34360 34361 34384 34385 34386 34387 34388 34389 34390
 34391 34393 34395 34397 34405 34406 34407 34408 34409 34410 34411 34431 34432
 34433 34434 34435 34436 34437 34438 34439 34440 34441 34442 34443 34444 34445
 34446 34447 34448 34449 34450 34451 34452 34453 34454 34455 34456 34457 34458
 34459 34460 34461 34462 34463 34464 34465 34466 34467 34468 34469 34470 34471
 34472 34473 34474 34475 34476 34477 34478 34479 34480 34481 34482 34483 34484
 34485 34486 34487 34488 34489 34490 34491 34492 34493 34494 34495 34496 34497
 34498 34499 34500 34501 34502 34503 34504 34505 34506 34507 34508 34509 34510
 34511 34512 34513 34514 34515 34516 34517 34518 34519 34520 34521 34522 34523
 34524 34525 34526 34527 34528 34529 34530 34531 34532 34533 34534 34535 34536
 34537 34538 34539 34540 34541 34542 34543 34544 34545 34546 34547 34548 34549
 34550 34551 34552 34553 34554 34555 34556 34557 34558 34559 34560 34561 34562
 34563 34564 34565 34566 34567 34568 34569 34570 34571 34572 34573 34574 34575
 34576 34577 34578 34579 34580 34581 34582 34583 34584 34585 34586 34587 34588
 34589 34590 34591 34592 34593 34594 34595 34596 34597 34598 34599 34600 34601
 34602 34603 34604 34605 34606 34607 34608 34609 34610 34611 34612 34613 34614
 34615 34616 34617 34618 34619 34620 34621 34622 34623 34624 34625 34626 34627
 34628 34629 34630 34631 34632 34633 34634 34635 34636 34637 34638 34639 34640
 34641 34642 34643 34644 34645 34646 34647 34648 34649 34650 34651 34652 34653
 34654 34655 34656 34657 34658 34659 34660 34661 34662 34663 34664 34665 34666
 34667 34668 34669 34670 34671 34672 34673 34674 34675 34676 34677 34678 34679
 34680 34681 34682 34683 34684 34685 34686 34687 34688 34689 34690 34691 34692
 34693 34694 34695 34696 34697 34698 34699 34700 34701 34702 34703 34704 34705
 34706 34707 34708 34709 34710 34711 34712 34713 34714 34715 34716 34717 34718
 34719 34720 34721 34722 34723 34724 34725 34726 34727 34728 34729 34730 34731
 34732 34733 34734 34735 34736 34737 34738 34739 34740 34741 34742 34743 34744
 34754 34755 34756 34757 34758 34759 34760 34761 34762 34763 34764 34765 34766
 34767 34768 34769 34770 34771 34772 34773 34774 34775 34776 34777 34778 34779
 34780 34781 34782 34783 34784 34785 34786 34787 34788 34789 34790 34791 34792
 34793 34794 34795 34796 34797 34798 34799 34800 34801 34802 34803 34804 34805
 34806 34807 34808 34809 34810 34811 34812 34813 34814 34815 34816 34817 34818
 34819 34820 34821 34822 34823 34824 34825 34826 34827 34828 34829 34830 34831
 34832 34833 34834 34835 34836 34837 34838 34839 34840 34841 34842 34843 34844
 34845 34846 34847 34848 34849 34850 34851 34852 34853 34854 34855 34856 34857
 34858 34859 34860 34861 34862 34863 34864 34865 34866 34867 34868 34869 34870
 34871 34872 34873 34874 34875 34876 34877 34878 34879 34880 34881 34882 34883
 34884 34885 34886 34887 34888 34889 34890 34891 34892 34893 34894 34895 34896
 34897 34898 34899 34900 34901 34902 34903 34904 34905 34906 34907 34908 34909
 34910 34911 34912 34913 34914 34915 34916 34917 34918 34919 34920 34921 34922
 34923 34924 34925 34926 34927 34928 34929 34930 34931 34932 34933 34934 34935
 34936 34937 34938 34939 34940 34941 34942 34943 34944 34945 34946 34947 34948
 34949 34950 34951 34952 34953 34954 34955 34956 34957 34958 34959 34960 34961
 34962 34963 34964 34965 34966 34967 34968 34969 34970 34971 34972 34973 34974
 34975 34976 34977 34978 34979 34980 34981 34982 34983 34984 34985 34986 34987
 34988 34989 34990 34991 34992 34993 34994 34995 34996 34997 34998 34999 35000
 35001 35002 35003 35004 35005 35006 35007 35008 35009 35010 35011 35012 35013
 35014 35015 35016 35017 35018 35019 35020 35021 35022 35023 35024 35025 35026
 35027 35028 35029 35030 35031 35032 35033 35034 35035 35036 35037 35038 35039
 35040 35041 35042 35043 35044 35045 35046 35047 35048 35049 35050 35051 35052
 35053 35054 35055 35056 35057 35058 35059 35060 35061 35062 35063 35064 35065
 35066 35067 35068 35069 35070 35071 35072 35073 35074 35075 35076 35077 35078
 35079 35080 35081 35082 35083 35084 35085 35086 35087 35088 35089 35090 35091
 35092 35093 35094 35095 35096 35097 35098 35099 35100 35101 35102 35103 35104
 35105 35106 35107 35108 35109 35110 35111 35112 35113 35114 35115 35116 35117
 35118 35119 35120 35121 35122 35123 35124 35125 35126 35127 35128 35129 35130
 35131 35132 35133 35134 35135 35136 35137 35138 35139 35140 35141 35142 35143
 35144 35145 35146 35147 35148 35149 35150 35151 35152 35153 35154 35155 35156
 35157 35158 35159 35160 35161 35162 35163 35164 35165 35166 35167 35168 35169
 35170 35171 35172 35173 35174 35175 35176 35177 35178 35179 35180 35181 35182
 35183 35184 35185 35186 35187 35188 35189 35190 35191 35192 35193 35194 35195
 35196 35197 35198 35199 35200 35201 35202 39686 39687 39689 39690 39691 39692
 39693 39694 39695 39696 39697 39698 39699 39700 39701 39702 39703 39704 39705
 39706 39707 39708 39709 39713 39714 39715 39716 39717 39718 39719 39720 39721
 39722 39723 39724 39725 39726 39727 39728 39729 39730 39778 39781 39782 39783
 39785 39786 39787 39788 39789 39790 39791 39792 39793 39794 39795 39796 39797
 39798 39799 39800 39801 39802 39803 39804 39805 39806 39807 39808 39809 39811
 39812 39813 39820 39872 39873 39874 39875 39876 39877 39878 39879 39885 39893
 39894 39895 39896 40763 40764 40766 40767 40768 40769 40770 40771 40772 40773
 40780 40782 40783 40784 40788 40789 40790 40793 40795 40796 40797 40826 40827
 40828 40829 40830 40831 40832 40833 40834 40835 40836 40837 40838 40839 40840
 40841 40872 40873 40945 40946 40950 40951 40952 40953 40954 40955 40956 41015
 41016 41017 41018 41019 41020 41093 41094 41095 41100 41101 41102 41103 41104
 41105 41106 41107 41108 41109 41110 41111 41112 41113 41195 41196 41197 41198
 41199 41200 41201 41202 41203 41204 41206 41210 41211 41212 41213 41214 41269
 41270 41271 41272 41273 41274 41275 41276 41277 41278 41279 41280 41281 41282
 41283 41284 41285 41286 41287 41288 41289 41290 41291 41292 41299 41300 41301
 41302 41303 41304 41305 41306 41307 41308 41309 41310 41311 41312 41313 41314
 41315 41316 41317 41318 41503 41504 41505 41506 41507 41508 41509 41510 41511
 41512 41513 41514 41515 41516 41517 41518 41519 41520 41521 41522 41523 41524
 41525 41526 41527 41528 41529 41550 41551 41552 41553 41554 41555 41556 41557
 41558 41559 41560 41561 41562 41563 41564 41565 41566 41567 41568 41569 41570
 41624 41625 41626 41627 41628 41629 41630 41631 41632 41633 41634 41635 41636
 41637 41638 41639 41640 41641 41642 41643 41644 41645 41646 41647 41648 41649
 41650 41651 41652 41653 41654 41655 41656 41657 41658 41659 41660 41661 41662
 41664 41675 41676 41677 41678 41679 41680 41681 41682 41683 41684 41685 41686
 41687 41688 41689 41690 41691 41692 41693 41694 41695 41696 41697 41698 41699
 41700 41701 41744 41745 41746 41747 41748 41749 41750 41751 41752 41753 41754
 41755 41756 41757 41758 41760 41761 41762 41763 41764 41765 41766 41767 41768
 41769 41770 41771 41772 41773 41774 41775 41776 41777 41778 41779 41780 41781
 41782 41786 41787 41788 41789 41790 41791 41792 41793 41794 41795 41796 41797
 41798 41799 41800 41801 41802 41803 41804 41805 41806 41807 41808 41809 41810
 41811 41812 41813 41814 41815 41816 41817 41818 41819 41820 41821 41824 41825
 41827 41828 41829 41830 41831 41832 41833 41834 41835 41836 41837 41838 41839
 41840 41841 41842 41843 41844 41845 41846 41847 41848 41870 41871 41872 41873
 41874 41875 41876 41877 41878 41879 41880 41881 41882 41883 41884 41885 41886
 41888 41964 41965 41966 41967 41968 41969 41970 41971 41972 41973 41974 41975
 41976 41977 41978 41979 41980 41981 41982 41983 41984 41985 41986 41987 41988
 41989 42058 42059 42060 42061 42062 42063 42064 42065 42066 42067 42068 42069
 42070 42071 42072 42073 42074 42075 42076 42077 42078 42079 42080 42081 42082
 42083 42084 42085 42086 42087 42088 42089 42090 42091 42092 42093 42094 42095
 42096 42097 42098 42099 42100 42101 42102 42103 42104 42105 42106 42107 42108
 42109 42110 42111 42112 42113 42114 42115 42116 42117 42118 42119 42120 42121
 42122 42123 42124 42125 42126 42195 42196 42197 42198 42199 42200 42201 42202
 42203 42204 42205 42206 42207 42208 42209 42210 42211 42212 42213 42214 42215
 42242 42243 42244 42245 42250 42251 42252 42253 42254 42255 42256 42257 42258
 42259 42260 42261 42262 42263 42264 42265 42266 42267 42268 42269 42270 42271
 42272 42273 42274 42275 42276 42277 42278 42279 42280 42281 42282 42283 42284
 42285 42286 42287 42288 42289 42290 42291 42292 42293 42294 42295 42296 42297
 42298 42299 42300 42301 42302 42303 42304 42305 42306 42307 42308 42309 42310
 42311 42312 42313 42314 42315 42316 42317 42318 42319 42320 42321 42322 42323
 42324 42325 42326 42327 42328 42329 42330 42331 42332 42333 42334 42335 42336
 42337 42338 42339 42340 42341 42342 42343 42344 42345 42346 42347 42348 42349
 42350 42351 42352 42353 42354 42355 42356 42357 42358 42359 42360 42361 42362
 42363 42364 42366 42367 42368 42371 42372 42374 42375 42376 42377 42378 42379
 42380 42381 42382 42383 42386 42397 42398 42399 42400 42401 42402 42403 42404
 42405 42406 42407 42408 42409 42410 42411 42412 42413 42414 42415 42416 42417
 42418 42419 42420 42421 42422 42423 42424 42425 42428 42439 42440 42441 42442
 42443 42444 42445 42446 42447 42448 42449 42450 42451 42452 42453 42454 42455
 42456 42457 42458 42459 42460 42461 42462 42463 42464 42465 42466 42467 42468
 42469 42470 42471 42472 42473 42474 42475 42476 42477 42478 42479 42480 42481
 42482 42483 42484 42485 42486 42487 42488 42489 42490 42491 42492 42493 42494
 42495 42496 42497 42498 42499 42500 42501 42502 42503 42504 42505 42506 42528
 42529 42530 42531 42532 42533 42534 42535 42536 42538 42540 42549 42550 42551
 42552 42553 42554 42555 42556 42557 42558 42559 42560 42561 42562 42563 42564
 42565 42566 42567 42568 42569 42570 42571 42572 42573 42574 42575 42576 42577
 42578 42579 42580 42581 42582 42583 42584 42585 42586 42587 42588 42589 42590
 42591 42592 42593 42594 42595 42596 42597 42598 42599 42600 42601 42602 42603
 42604 42605 42606 42607 42608 42609 42610 42612 42614 42615 42626 42627 42628
 42629 42630 42631 42632 42633 42634 42635 42636 42637 42638 42639 42640 42641
 42642 42643 42644 42645 42646 42647 42648 42649 42650 42651 42652 42653 42654
 42655 42656 42657 42658 42659 42660 42661 42662 42663 42664 42665 42666 42667
 42668 42669 42670 42671 42672 42673 42674 42675 42676 42677 42678 42679 42680
 42681 42682 42683 42684 42685 42686 42687 42688 42689 42690 42691 42692 42693
 42694 42695 42696 42697 42698 42699 42700 42701 42702 42703 42704 42705 42706
 42707 42708 42709 42710 42711 42712 42713 42714 42715 42716 42717 42718 42719
 42720 42721 42722 42723 42724 42725 42726 42727 42728 42729 42730 42731 42732
 42733 42734 42735 42736 42737 42738 42739 42740 42741 42742 42743 42744 42745
 42746 42747 42748 42749 42750 42751 42752 42753 42754 42755 42756 42757 42758
 42759 42760 42761 42762 42763 42764 42765 42766 42767 42768 42769 42770 42771
 42772 42773 42774 42775 42776 42777 42778 42779 42780 42781 42782 42783 42784
 42785 42786 42787 42788 42789 42790 42791 42792 42793 42794 42795 42796 42797
 42798 42799 42800 42801 42802 42803 42804 42805 42806 42807 42808 42809 42810
 42811 42812 42813 42814 42815 42816 42817 42818 42819 42820 42821 42822 42823
 42824 42825 42826 42827 42828 42829 42830 42831 42832 42833 42834 42835 42836
 42837 42838 42839 42840 42841 42842 42843 42844 42845 42846 42847 42848 42849
 42850 42851 42852 42853 42854 42855 42856 42857 42858 42859 42860 42861 42862
 42863 42864 42865 42866 42867 42868 42869 42870 42871 42872 42873 42874 42875
 42876 42877 42878 42879 42880 42881 42882 42883 42884 42885 42886 42887 42888
 42889 42890 42891 42892 42893 42894 42895 42896 42897 42898 42899 42900 42901
 42902 42903 42904 42905 42906 42907 42908 42909 42910 42911 42912 42913 42914
 42915 42916 42917 42918 42919 42920 42921 42922 42923 42924 42925 42926 42927
 42928 42929 42930 42931 42932 42933 42934 42935 42936 42937 42938 42939 42940
 42941 42942 42943 42944 42945 42946 42947 42948 42949 42950 42951 42952 42953
 42954 42955 42956 42957 42958 42959 42960 42961 42962 42963 42964 42965 42966
 42967 42968 42969 42970 42971 42972 42973 42974 42975 42976 42977 42978 42979
 42980 42981 42982 42983 42984 42985 42986 42987 42988 42989 42990 42991 42992
 42993 42994 42995 42996 42997 42998 42999 43000 43001 43002 43003 43004 43005
 43006 43007 43008 43009 43010 43011 43012 43013 43014 43015 43016 43017 43018
 43019 43020 43021 43022 43023 43024 43025 43026 43027 43028 43029 43030 43031
 43032 43033 43034 43035 43036 43037 43038 43039 43040 43041 43042 43043 43044
 43045 43046 43047 43048 43049 43050 43051 43052 43053 43054 43055 43056 43057
 43058 43059 43060 43061 43062 43063 43064 43065 43066 43067 43068 43069 43070
 43071 43072 43073 43074 43075 43076 43077 43078 43079 43080 43081 43082 43083
 43084 43085 43086 43087 43088 43089 43090 43091 43092 43093 43094 43095 43096
 43097 43098 43099 43100 43101 43102 43103 43104 43105 43106 43107 43108 43109
 43110 43111 43112 43113 43114 43115 43116 43117 43118 43119 43120 43121 43122
 43123 43124 43125 43126 43127 43128 43129 43130 43131 43132 43133 43134 43135
 43136 43137 43138 43139 43140 43141 43142 43143 43144 43145 43146 43147 43148
 43149 43150 43151 43152 43153 43154 43155 43156 43157 43158 43159 43160 43161
 43162 43163 43164 43165 43166 43167 43168 43169 43170 43171 43172 43173 43174
 43175 43176 43177 43178 43179 43180 43181 43182 43183 43184 43185 43186 43187
 43188 43189 43190 43191 43192 43193 43194 43195 43196 43197 43198 43199 43200
 43201 43202 43203 43204 43205 43206 43207 43208 43209 43210 43211 43212 43213
 43214 43215 43216 43217 43218 43219 43220 43221 43222 43223 43224 43225 43226
 43227 43228 43229 43230 43231 43232 43233 43234 43235 43236 43237 43238 43239
 43240 43241 43242 43243 43244 43245 43246 43247 43248 43249 43250 43251 43252
 43253 43254 43255 43256 43257 43258 43259 43260 43261 43262 43263 43264 43265
 43266 43267 43268 43269 43270 43271 43272 43273 43274 43275 43276 43277 43278
 43279 43280 43281 43282 43283 43284 43285 43286 43287 43288 43289 43290 43291
 43292 43293 43294 43295 43296 43297 43298 43299 43300 43301 43302 43303 43304
 43305 43306 43307 43308 43309 43310 43311 43312 43313 43314 43315 43316 43317
 43318 43319 43320 43321 43322 43323 43324 43325 43326 43327 43328 43329 43330
 43331 43332 43333 43334 43335 43336 43337 43338 43339 43340 43341 43342 43343
 43344 43345 43346 43347 43348 43349 43350 43351 43352 43353 43354 43355 43356
 43357 43358 43359 43360 43361 43362 43363 43364 43365 43366 43367 43368 43369
 43370 43371 43372 43373 43374 43375 43376 43377 43378 43379 43380 43381 43382
 43383 43384 43385 43386 43387 43388 43389 43390 43391 43392 43393 43394 43395
 43396 43397 43398 43399 43400 43401 43402 43403 43404 43405 43406 43407 43408
 43409 43410 43411 43412 43413 43414 43415 43416 43417 43418 43419 43420 43421
 43422 43423 43424 43425 43426 43427 43428 43429 43430 43431 43432 43433 43434
 43435 43436 43437 43438 43439 43440 43441 43442 43443 43444 43445 43446 43447
 43448 43449 43450 43451 43452 43453 43454 43455 43456 43457 43458 43459 43460
 43461 43462 43463 43464 43465 43466 43467 43468 43469 43470 43471 43472 43473
 43474 43475 43476 43477 43478 43479 43480 43481 43482 43483 43484 43485 43486
 43487 43488 43489 43490 43491 43492 43493 43494 43495 43496 43497 43498 43499
 43500 43501 43502 43503 43504 43505 43506 43507 43508 43509 43510 43511 43512
 43513 43514 43515 43516 43517 43518 43519 43520 43521 43522 43523 43524 43525
 43526 43527 43528 43529 43530 43531 43532 43533 43534 43535 43536 43537 43538
 43539 43540 43541 43542 43543 43545 43546 43548 43550 43552 43553 43554 43555
 43556 43557 43558 43559 43561 43572 43584 43585 43586 43587 43588 43589 43590
 43591 43592 43593 43594 43595 43596 43597 43598 43646 43647 43648 43649 43650
 43651 43652 43653 43654 43655 43656 43657 43658 43659 43660 43661 43662 43663
 43664 43665 43666 43667 43668 43669 43670 43671 43672 43673 43674 43675 43676
 43677 43678 43679 43680 43681 43682 43683 43684 43685 43686 43687 43714 43715
 43716 43717 43718 43719 43720 43721 43722 43723 43724 43725 43726 43727 43728
 43729 43730 43731 43732 43733 43734 43782 43783 43784 43785 43786 43787 43788
 43789 43790 43791 43792 43793 43794 43795 43796 43797 43798 43799 43800 43801
 43802 43803 43804 43805 43806 43807 43808 43809 43810 43811 43812 43813 43814
 43815 43816 43817 43818 43819 43820 43821 43822 43823 43824 43825 43826 43827
 43828 43829 43830 43831 43832 43833 43834 43835 43836 43837 43838 43839 43840
 43841 43842 43843 43844 43845 43846 43847 43848 43849 43850 43865 43866 43867
 43868 43869 43870 43871 43872 43873 43874 43875 43876 43877 43878 43879 43880
 43881 43882 43883 43884 43885 43886 43887 43888 43889 43890 43891 43892 43893
 43894 43895 43896 43897 43966 43967 43968 43969 43970 43971 43972 43973 43974
 43975 43976 43977 43978 43979 43980 43981 43982 43983 43984 43985 43986 43987
 43988 43989 43990 43991 43992 43993 43994 43995 43996 43997 43998 43999 44000
 44001 44002 44003 44004 44005 44006 44007 44055 44056 44057 44058 44059 44060
 44061 44062 44063 44064 44065 44066 44067 44068 44069 44070 44071 44072 44073
 44074 44075 44076 44077 44078 44079 44080 44081 44082 44083 44084 44085 44086
 44087 44088 44089 44090 44091 44092 44093 44094 44095 44096 44151 44152 44153
 44154 44155 44156 44157 44158 44159 44160 44161 44162 44163 44164 44165 44166
 44167 44168 44169 44170 44171 44198 44199 44200 44201 44202 44203 44204 44205
 44206 44207 44208 44209 44210 44211 44212 44213 44214 44215 44216 44217 44218
 44219 44220 44221 44222 44223 44251 44252 44253 44254 44255 44256 44257 44258
 44259 44260 44261 44262 44263 44264 44265 44266 44267 44268 44269 44270 44271
 44298 44299 44300 44301 44302 44303 44304 44305 44306 44307 44308 44309 44310
 44311 44312 44313 44314 44315 44316 44317 44318 44340 44341 44342 44343 44344
 44345 44346 44347 44348 44349 44350 44351 44352 44353 44354 44355 44356 44357
 44358 44359 44360 44476 44477 44478 44479 44480 44481 44482 44483 44484 44485
 44486 44487 44488 44489 44490 44491 44492 44493 44494 44495 44496 44497 44498
 44499 44500 44501 44502 44503 44504 44505 44506 44507 44508 44509 44510 44511
 44512 44513 44514 44515 44516 44517 44518 44519 44520 44521 44522 44523 44524
 44525 44526 44527 44528 44529 44530 44531 44532 44533 44534 44535 44536 44537
 44538 44539 44540 44541 44542 44543 44561 44563 44570 44571 44572 44573 44574
 44575 44576 44577 44578 44579 44580 44581 44582 44583 44584 44585 44586 44587
 44588 44589 44590 44595 44596 44597 44598 44599 44600 44601 44602 44603 44604
 44605 44606 44607 44608 44609 44610 44611 44612 44613 44614 44615 44616 44617
 44618 44619 44620 44621 44622 44623 44624 44625 44626 44627 44628 44629 44630
 44631 44632 44633 44634 44635 44636 44637 44638 44639 44640 44641 44642 44643
 44644 44645 44646 44647 44648 44649 44650 44651 44652 44653 44654 44655 44656
 44657 44658 44659 44660 44661 44662 44663 44664 44665 44666 44667 44668 44669
 44670 44671 44672 44673 44674 44675 44676 44677 44678 44679 44680 44681 44682
 44683 44684 44685 44686 44687 44688 44689 44690 44691 44692 44693 44694 44695
 44696 44697 44698 44699 44700 44701 44702 44703 44704 44705 44706 44707 44708
 44709 44710 44711 44712 44713 44714 44715 44716 44717 44718 44719 44720 44721
 44722 44723 44724 44725 44726 44727 44728 44729 44730 44731 44732 44733 44734
 44735 44736 44737 44738 44739 44740 44741 44742 44743 44744 44745 44746 44747
 44748 44749 44750 44760 44761 44762 44763 44764 44765 44766 44767 44768 44769
 44770 44771 44772 44773 44774 44775 44776 44777 44778 44779 44780 44781 44782
 44783 44784 44785 44786 44787 44788 44789 44790 44791 44792 44793 44794 44795
 44796 44797 44798 44799 44800 44801 44802 44803 44804 44805 44806 44807 44808
 44809 44810 44811 44812 44813 44814 44815 44816 44817 44818 44819 44820 44821
 44822 44823 44824 44825 44826 44827 44828 44829 44830 44831 44832 44833 44834
 44835 44836 44837 44838 44839 44840 44841 44842 44843 44844 44845 44846 44847
 44848 44849 44850 44851 44852 44853 44854 44855 44856 44857 44858 44859 44860
 44861 44862 44863 44864 44865 44866 44867 44868 44869 44870 44871 44872 44873
 44874 44875 44876 44877 44878 44879 44880 44881 44882 44883 44884 44885 44886
 44887 44888 44889 44890 44891 44892 44893 44894 44895 44896 44897 44898 44899
 44900 44901 44902 44903 44904 44905 44906 44907 44908 44909 44910 44911 44912
 44913 44914 44915 44916 44917 44918 44919 44920 44921 44922 44923 44924 44925
 44926 44927 44928 44929 44930 44931 44932 44933 44934 44935 44936 44937 44938
 44939 44940 44941 44942 44943 44944 44945 44946 44947 44948 44949 44950 44951
 44952 44953 44954 44955 44956 44957 44958 44959 44960 44961 44962 44963 44964
 44965 44966 44967 44968 44969 44970 44971 44972 44973 44974 44975 44976 44977
 44978 44979 44980 44981 44982 44983 44984 44985 44986 44987 44988 44989 44990
 44991 44992 44993 44994 44995 44996 44997 44998 44999 45000 45001 45002 45003
 45004 45005 45006 45007 45008 45009 45010 45011 45012 45013 45014 45015 45016
 45017 45018 45019 45020 45021 45022 45023 45024 45025 45026 45027 45028 45029
 45030 45031 45032 45033 45034 45035 45036 45037 45038 45039 45040 45041 45042
 45043 45044 45045 45046 45047 45048 45049 45050 45051 45052 45053 45054 45055
 45056 45057 45058 45059 45060 45061 45062 45063 45064 45065 45066 45067 45068
 45069 45070 45071 45072 45073 45074 45075 45076 45077 45078 45079 45080 45081
 45082 45083 45084 45085 45086 45087 45088 45089 45090 45091 45092 45093 45094
 45095 45096 45097 45098 45099 45100 45101 45102 45103 45104 45105 45106 45107
 45108 45109 45110 45111 45112 45113 45114 45115 45116 45117 45118 45119 45120
 45121 45122 45123 45124 45125 45126 45127 45128 45129 45130 45131 45132 45133
 45134 45135 45136 45137 45138 45139 45140 45141 45142 45143 45144 45145 45146
 45147 45148 45149 45150 45151 45152 45153 45154 45155 45156 45157 45158 45159
 45160 45161 45162 45163 45164 45165 45166 45167 45168 45169 45170 45171 45172
 45173 45174 45175 45176 45177 45178 45179 45180 45181 45182 45183 45184 45185
 45186 45187 45188 45189 45190 45191 45192 45193 45194 45195 45196 45197 45198
 45199 45200 45201 45202 45203 45204 45205 45206 45207 45208 45209 45210 45211
 45212 45213 45214 45215 45216 45217 45218 45219 45220 45221 45222 45223 45224
 45225 45226 45227 45228 45229 45230 45231 45232 45233 45234 45235 45236 45237
 45238 45239 45240 45241 45242 45243 45244 45245 45246 45247 45248 45249 45250
 45251 45252 45253 45254 45255 45256 45257 45258 45259 45260 45261 45262 45263
 45264 45265 45266 45267 45269 45270 45271 45272 45273 45274 45275 45276 45277
 45278 45279 45280 45281 45282 45283 45284 45285 45286 45287 45288 45289 45290
 45291 45292 45293 45294 45295 45296 45297 45298 45299 45300 45301 45302 45303
 45304 45305 45306 45307 45308 45309 45310 45311 45312 45313 45314 45315 45316
 45317 45318 45319 45320 45321 45322 45323 45324 45325 45326 45327 45328 45329
 45330 45331 45332 45333 45334 45335 45336 45337 45338 45339 45340 45341 45342
 45343 45344 45345 45346 45347 45348 45349 45350 45351 45352 45353 45354 45355
 45356 45357 45358 45359 45360 45361 45362 45363 45364 45365 45366 45367 45368
 45369 45370 45371 45372 45373 45374 45375 45376 45377 45378 45379 45380 45381
 45382 45383 45384 45385 45386 45387 45388 45389 45390 45391 45392 45393 45394
 45395 45396 45397 45398 45399 45400 45401 45402 45403 45404 45405 45406 45407
 45408 45409 45410 45411 45412 45413 45414 45415 45416 45417 45418 45419 45420
 45421 45422 45423 45424 45425 45426 45427 45428 45429 45430 45431 45432 45433
 45434 45435 45436 45437 45438 45439 45440 45441 45442 45443 45444 45445 45446
 45447 45448 45449 45450 45451 45452 45453 45454 45455 45456 45457 45458 45459
 45460 45461 45462 45463 45464 45465 45466 45467 45468 45469 45470 45471 45472
 45473 45474 45475 45476 45477 45478 45479 45480 45481 45482 45483 45484 45485
 45486 45487 45488 45489 45490 45491 45492 45493 45494 45495 45496 45497 45498
 45499 45500 45501 45502 45503 45504 45505 45506 45507 45508 45509 45510 45511
 45512 45513 45514 45515 45516 45517 45518 45519 45520 45521 45522 45523 45524
 45525 45526 45527 45528 45529 45530 45531 45532 45533 45534 45535 45536 45537
 45538 45539 45540 45541 45542 45543 45544 45545 45546 45547 45548 45549 45550
 45551 45552 45553 45554 45555 45556 45557 45558 45559 45560 45561 45562 45563
 45564 45565 45566 45567 45568 45569 45570 45571 45572 45573 45574 45575 45576
 45577 45578 45579 45580 45581 45582 45583 45584 45585 45586 45587 45588 45589
 45590 45591 45592 45593 45594 45595 45596 45597 45598 45599 45600 45601 45602
 45603 45604 45605 45606 45607 45608 45609 45610 45611 45612 45613 45614 45615
 45616 45617 45618 45619 45620 45621 45622 45623 45624 45625 45626 45627 45628
 45629 45630 45631 45632 45633 45634 45635 45636 45637 45638 45639 45640 45641
 45642 45643 45644 45645 45646 45647 45648 45649 45650 45651 45652 45653 45654
 45655 45656 45657 45658 45659 45660 45661 45662 45663 45664 45665 45666 45667
 45668 45669 45670 45671 45672 45673 45674 45675 45676 45677 45678 45679 45680
 45681 45682 45683 45684 45685 45686 45687 45688 45689 45690 45691 45692 45693
 45694 45695 45696 45697 45698 45699 45700 45701 45702 45703 45704 45705 45706
 45707 45708 45709 45710 45711 45712 45713 45714 45715 45716 45717 45718 45719
 45720 45721 45722 45723 45724 45725 45726 45727 45728 45729 45730 45731 45732
 45733 45734 45735 45736 45737 45738 45739 45740 45741 45742 45743 45744 45745
 45746 45747 45748 45749 45750 45751 45752 45753 45754 45755 45756 45757 45758
 45759 45760 45761 45762 45763 45764 45765 45766 45767 45768 45769 45770 45771
 45772 45773 45774 45775 45776 45777 45778 45779 45780 45781 45782 45783 45784
 45785 45786 45787 45788 45789 45790 45791 45792 45793 45794 45795 45796 45797
 45798 45799 45800 45801 45802 45803 45804 45805 45806 45807 45808 45809 45810
 45811 45812 45813 45814 45815 45816 45817 45818 45819 45820 45821 45822 45823
 45824 45825 45826 45827 45828 45829 45830 45831 45832 45833 45834 45835 45836
 45837 45838 45839 45840 45841 45842 45843 45844 45845 45846 45847 45848 45849
 45850 45851 45852 45853 45854 45855 45856 45857 45858 45859 45860 45861 45862
 45863 45864 45865 45866 45867 45868 45869 45870 45871 45872 45873 45874 45875
 45876 45877 45878 45879 45880 45881 45882 45883 45884 45885 45886 45887 45888
 45889 45890 45891 45892 45893 45894 45895 45896 45897 45898 45899 45900 45901
 45902 45903 45904 45905 45906 45907 45908 45909 45910 45911 45912 45913 45914
 45915 45916 45917 45918 45919 45920 45921 45922 45923 45924 45925 45926 45927
 45928 45929 45930 45931 45932 45933 45934 45935 45936 45937 45938 45939 45940
 45941 45942 45943 45944 45945 45946 45947 45948 45949 45950 45951 45952 45953
 45954 45955 45956 45957 45958 45959 45960 45961 45962 45963 45964 45965 45966
 45967 45968 45969 45970 45971 45972 45973 45974 45975 45976 45977 45978 45979
 45980 45981 45982 45983 45984 45985 45986 45987 45988 45989 45990 45991 45992
 45993 45994 45995 45996 45997 45998 45999 46000 46001 46002 46003 46004 46005
 46006 46007 46008 46009 46010 46011 46012 46013 46014 46015 46016 46017 46018
 46019 46020 46021 46022 46023 46024 46025 46026 46027 46028 46029 46030 46031
 46032 46033 46034 46035 46036 46037 46038 46039 46040 46041 46042 46043 46044
 46045 46046 46047 46048 46049 46050 46051 46052 46053 46054 46055 46056 46057
 46058 46059 46060 46061 46062 46063 46064 46065 46066 46067 46068 46069 46070
 46071 46072 46073 46074 46075 46076 46077 46078 46079 46080 46081 46082 46083
 46084 46085 46086 46087 46088 46089 46090 46091 46092 46093 46094 46095 46096
 46097 46098 46099 46100 46101 46102 46103 46104 46105 46106 46107 46108 46109
 46110 46111 46112 46113 46114 46115 46116 46117 46118 46119 46120 46121 46122
 46123 46124 46125 46126 46127 46128 46129 46130 46131 46132 46133 46134 46135
 46136 46157 46158 46159 46160 46161 46162 46163 46164 46165 46166 46167 46178
 46179 46180 46181 46182 46183 46184 46185 46186 46187 46188 46189 46190 46191
 46192 46193 46194 46195 46196 46197 46198 46199 46200 46201 46202 46203 46204
 46205 46206 46207 46208 46219 46220 46222 46223 46224 46225 46226 46227 46228
 46229 46230 46231 46233 46234 46256 46257 46258 46259 46260 46261 46262 46263
 46264 46265 46266 46267 46268 46269 46270 46271 46272 46273 46274 46275 46276
 46277 46278 46279 46280 46281 46282 46285 46286 46287 46288 46289 46290 46291
 46292 46293 46294 46295 46296 46297 46298 46299 46300 46301 46302 46303 46304
 46305 46306 46307 46308 46310 46311 46312 46313 46314 46315 46316 46317 46318
 46319 46320 46321 46322 46323 46324 46325 46326 46327 46328 46329 46330 46331
 46332 46333 46334 46335 46336 46337 46338 46339 46340 46341 46342 46343 46344
 46345 46346 46347 46348 46349 46350 46351 46352 46353 46354 46355 46356 46357
 46358 46359 46360 46361 46362 46363 46364 46365 46366 46367 46368 46369 46370
 46371 46372 46373 46374 46375 46376 46377 46378 46379 46380 46381 46382 46383
 46384 46385 46386 46387 46388 46389 46390 46391 46392 46393 46394 46395 46396
 46397 46398 46399 46400 46401 46402 46403 46405 46406 46407 46408 46409 46410
 46411 46412 46413 46414 46415 46430 46445 46446 46447 46448 46449 46450 46451
 46452 46453 46454 46455 46456 46457 46458 46459 46460 46461 46462 46463 46464
 46465 46466 46467 46468 46469 46470 46471 46472 46473 46474 46475 46476 46477
 46478 46479 46480 46481 46482 46483 46484 46485 46486 46493 46508 46509 46510
 46511 46515 46516 46517 46518 46519 46521 46522 46523 46524 46526 46529 46530
 46531 46532 46533 46534 46535 46536 46537 46538 46539 46540 46541 46542 46543
 46544 46545 46546 46547 46548 46549 46554 46562 46571 46572 46573 46574 46575
 46576 46577 46578 46579 46580 46581 46582 46583 46584 46585 46586 46587 46588
 46589 46590 46591 46592 46593 46594 46595 46596 46597 46598 46599 46600 46601
 46602 46603 46604 46605 46606 46607 46608 46609 46610 46611 46612 46613 46614
 46615 46616 46617 46618 46619 46620 46621 46622 46623 46624 46625 46626 46627
 46628 46629 46630 46631 46632 46633 46634 46635 46636 46637 46638 46639 46640
 46641 46642 46643 46644 46645 46646 46647 46648 46649 46650 46651 46652 46653
 46654 46655 46656 46657 46658 46659 46660 46709 46710 46711 46712 46713 46714
 46715 46716 46717 46718 46719 46720 46721 46722 46723 46724 46725 46726 46727
 46728 46729 46767 46768 46769 46770 46771 46772 46773 46774 46775 46776 46777
 46778 46779 46780 46781 46782 46783 46784 46785 46786 46787 46788 46789 46790
 46791 46792 46793 46794 46795 46796 46797 46798 46799 46800 46801 46802 46803
 46804 46805 46806 46807 46808 46809 46810 46811 46812 46813 46814 46815 46816
 46817 46818 46827 46828 46829 46830 46831 46832 46833 46834 46835 46836 46837
 46838 46839 46840 46841 46842 46843 46844 46892 46893 46894 46895 46896 46897
 46898 46899 46900 46901 46902 46903 46904 46905 46906 46907 46908 46909 46910
 46911 46912 46913 46914 46915 46916 46917 46918 46919 46920 46921 46922 46923
 46924 46925 46926 46927 46928 46929 46930 46931 46932 46933 46934 46935 46936
 46937 46938 46939 46944 46945 46946 46947
[ lower ]
    10    15    17    18    22    25    28    30    32    35    40    41    42
    43    46    50    54    55    57    58    59    60    70    74    75    76
    78    82    90    93    94    95    96    97    98   100   101   103   107
   110   111   116   118   123   127   128   130   132   144   148   150   151
   155   158   159   161   162   164   165   166   167   168   169   170   171
   173   174   175   176   177   180   183   186   188   192   196   197   199
   201   202   206   208   214   216   217   218   226   228   230   232   233
   234   237   239   240   243   245   247   248   251   258   260   261   265
   266   267   276   285   292   297   299   300   301   303   305   306   307
   308   310   311   316   318   319   320   322   326   335   337   338   340
   345   346   349   351   352   354   355   360   363   368   369   370   371
   374   375   377   378   381   385   393   397   398   407   412   416   420
   421   427   432   433   437   438   439   442   443   446   447   450   453
   457   458   459   460   461   463   468   469   471   472   476   480   483
   485   491   492   493   495   497   499   502   507   508   509   510   511
   512   514   515   522   528   529   532   537   539   545   547   549   550
   551   553   555   556   562   564   565   567   568   570   578   579   580
   581   582   583   584   585   586   587   588   590   591   592   594   595
   598   599   600   601   606   608   612   614   618   620   622   624   625
   628   634   636   637   639   640   643   644   645   647   648   649   651
   652   654   659   660   661   662   664   667   669   670   671   673   680
   681   682   683   705   706   707   708   709   711   712   725   730   732
   733   735   738   741   742   744   746   748   751   756   757   758   759
   763   767   771   772   774   775   776   777   780   788   792   793   794
   796   800   803   809   810   813   814   815   816   817   818   820   821
   823   827   830   831   836   838   843   847   848   850   852   864   868
   870   871   875   878   879   881   882   884   885   886   887   888   889
   890   891   894   895   896   897   898   899   902   905   909   911   915
   919   920   922   924   925   929   931   937   939   940   941   950   952
   954   955   957   958   959   962   964   965   968   970   972   973   976
   983   985   986   990   991   992  1001  1010  1018  1023  1025  1026  1027
  1029  1031  1033  1034  1036  1037  1042  1044  1045  1046  1048  1052  1061
  1063  1064  1066  1071  1072  1075  1077  1078  1080  1081  1086  1089  1094
  1095  1096  1097  1100  1101  1103  1104  1107  1111  1119  1123  1124  1133
  1136  1138  1142  1146  1147  1153  1158  1159  1163  1164  1165  1168  1169
  1172  1173  1176  1179  1183  1184  1185  1186  1187  1189  1194  1195  1197
  1198  1202  1206  1209  1211  1217  1218  1219  1221  1223  1225  1228  1233
  1234  1235  1236  1237  1238  1240  1241  1248  1254  1255  1258  1263  1265
  1271  1273  1275  1276  1277  1279  1281  1282  1288  1290  1291  1293  1294
  1296  1304  1306  1307  1308  1309  1310  1311  1312  1313  1314  1315  1317
  1318  1319  1321  1322  1325  1326  1327  1328  1329  1334  1336  1340  1342
  1346  1348  1350  1352  1353  1356  1358  1363  1365  1366  1368  1369  1372
  1373  1374  1375  1376  1377  1378  1379  1381  1382  1384  1389  1390  1391
  1393  1396  1397  1398  1399  1400  1402  1409  1410  1411  1433  1434  1435
  1437  1441  1442  1453  1458  1460  1461  1465  1468  1469  1471  1473  1475
  1478  1483  1484  1485  1486  1489  1493  1497  1498  1500  1501  1502  1503
  1513  1517  1518  1519  1521  1525  1533  1536  1537  1538  1539  1540  1541
  1543  1544  1546  1550  1553  1554  1559  1561  1566  1570  1571  1573  1575
  1587  1591  1593  1594  1598  1601  1602  1604  1605  1607  1608  1609  1610
  1611  1612  1613  1614  1616  1617  1618  1619  1620  1623  1626  1629  1631
  1635  1639  1640  1642  1644  1645  1649  1651  1657  1659  1660  1661  1669
  1671  1673  1675  1676  1677  1680  1682  1683  1686  1688  1690  1691  1694
  1701  1703  1704  1708  1709  1710  1719  1728  1735  1740  1742  1743  1744
  1746  1748  1749  1750  1751  1753  1754  1759  1761  1762  1763  1765  1769
  1778  1780  1781  1783  1788  1789  1792  1794  1795  1797  1798  1803  1806
  1811  1812  1813  1814  1817  1818  1820  1821  1824  1827  1829  1837  1841
  1842  1851  1856  1860  1864  1865  1871  1876  1877  1881  1882  1883  1886
  1887  1890  1891  1894  1897  1901  1902  1903  1904  1905  1907  1912  1913
  1915  1916  1920  1924  1927  1929  1935  1936  1937  1939  1941  1943  1946
  1951  1952  1953  1954  1955  1956  1958  1959  1966  1972  1973  1975  1976
  1981  1983  1989  1991  1993  1994  1995  1997  1999  2000  2006  2008  2009
  2011  2012  2014  2022  2024  2025  2026  2027  2028  2029  2030  2031  2032
  2034  2035  2036  2038  2039  2042  2043  2044  2045  2046  2051  2053  2057
  2059  2063  2065  2067  2069  2070  2073  2079  2081  2082  2084  2085  2087
  2088  2089  2090  2092  2093  2094  2095  2097  2098  2100  2105  2106  2107
  2108  2110  2114  2115  2116  2117  2119  2125  2126  2127  2128  2150  2151
  2152  2153  2154  2155  2156  2157  2158  2161  2173  2178  2180  2181  2183
  2186  2187  2189  2190  2192  2194  2196  2199  2204  2205  2206  2207  2211
  2215  2219  2220  2222  2223  2224  2225  2228  2236  2240  2241  2242  2244
  2248  2251  2258  2261  2262  2263  2264  2265  2266  2268  2269  2271  2275
  2278  2279  2284  2286  2291  2295  2296  2298  2300  2312  2316  2318  2319
  2323  2326  2327  2329  2330  2332  2333  2334  2336  2337  2338  2339  2342
  2343  2344  2345  2346  2347  2350  2353  2357  2359  2363  2367  2368  2370
  2372  2373  2377  2379  2385  2387  2388  2389  2398  2400  2402  2403  2405
  2406  2407  2410  2412  2413  2416  2418  2420  2421  2424  2431  2433  2434
  2438  2439  2440  2449  2458  2466  2471  2473  2474  2475  2477  2479  2480
  2481  2482  2484  2485  2490  2492  2493  2494  2496  2500  2509  2511  2512
  2514  2519  2520  2523  2525  2526  2528  2529  2534  2537  2542  2543  2544
  2545  2548  2549  2551  2552  2555  2558  2560  2568  2572  2579  2582  2587
  2591  2595  2596  2602  2607  2608  2612  2613  2614  2617  2618  2621  2622
  2625  2628  2632  2633  2634  2635  2636  2638  2643  2644  2646  2647  2651
  2655  2658  2660  2666  2667  2668  2670  2672  2674  2677  2682  2683  2684
  2685  2686  2687  2689  2690  2697  2703  2704  2707  2712  2714  2720  2722
  2724  2725  2728  2730  2731  2737  2739  2740  2742  2743  2745  2753  2755
  2756  2757  2758  2759  2760  2761  2762  2763  2764  2766  2767  2768  2771
  2774  2775  2776  2777  2778  2783  2785  2789  2791  2795  2797  2799  2801
  2802  2805  2807  2812  2814  2815  2816  2817  2820  2821  2822  2823  2825
  2826  2827  2829  2830  2836  2837  2838  2842  2843  2844  2845  2846  2847
  2849  2856  2857  2858  2859  2879  2880  2881  2882  2886  2888  2889  2892
  2894  2895  2898  2901  2903  2904  2905  2906  2908  2910  2911  2914  2917
  2919  2920  2921  2922  2923  2924  2938  2943  2945  2946  2950  2953  2954
  2956  2958  2960  2963  2968  2969  2970  2971  2974  2978  2982  2983  2985
  2986  2987  2988  2998  3002  3003  3004  3006  3010  3018  3021  3022  3023
  3024  3025  3026  3028  3029  3031  3035  3038  3039  3044  3046  3051  3055
  3056  3058  3060  3072  3076  3078  3079  3083  3086  3087  3089  3090  3092
  3093  3094  3095  3096  3097  3098  3099  3101  3102  3103  3104  3105  3108
  3111  3114  3116  3120  3124  3125  3127  3129  3130  3134  3136  3142  3144
  3145  3146  3154  3156  3158  3160  3161  3162  3165  3167  3168  3171  3173
  3175  3176  3179  3186  3188  3189  3193  3194  3195  3204  3213  3220  3225
  3227  3228  3229  3231  3233  3234  3235  3236  3238  3239  3244  3246  3247
  3248  3250  3254  3263  3265  3266  3268  3273  3274  3277  3279  3280  3282
  3283  3288  3291  3296  3297  3298  3299  3302  3303  3305  3306  3309  3313
  3321  3325  3326  3335  3340  3344  3348  3349  3355  3360  3361  3365  3366
  3367  3370  3371  3374  3375  3378  3381  3385  3386  3387  3388  3389  3391
  3396  3397  3399  3400  3404  3408  3411  3413  3419  3420  3421  3423  3425
  3427  3430  3435  3436  3437  3438  3439  3440  3442  3443  3450  3456  3457
  3460  3465  3467  3473  3475  3477  3478  3479  3481  3483  3484  3490  3492
  3493  3495  3496  3498  3506  3507  3508  3509  3510  3511  3512  3513  3514
  3515  3516  3518  3519  3520  3522  3523  3526  3527  3528  3529  3534  3536
  3540  3542  3546  3548  3550  3552  3553  3556  3562  3564  3565  3567  3568
  3571  3572  3573  3575  3576  3577  3579  3580  3582  3587  3588  3589  3590
  3592  3595  3597  3598  3599  3601  3608  3609  3610  3611  3633  3634  3635
  3636  3637  3639  3640  3653  3658  3660  3661  3663  3666  3669  3670  3672
  3674  3676  3679  3684  3685  3686  3687  3691  3695  3699  3700  3702  3703
  3704  3705  3708  3716  3720  3721  3722  3724  3728  3731  3738  3741  3742
  3743  3744  3745  3746  3748  3749  3751  3755  3758  3759  3764  3766  3771
  3775  3776  3778  3780  3792  3796  3798  3799  3803  3806  3807  3809  3810
  3812  3813  3814  3815  3816  3817  3818  3819  3822  3823  3824  3825  3826
  3827  3830  3833  3837  3839  3843  3847  3848  3850  3852  3853  3857  3859
  3865  3867  3868  3869  3878  3880  3882  3883  3885  3886  3887  3890  3892
  3893  3896  3898  3900  3901  3904  3911  3913  3914  3918  3919  3920  3929
  3938  3946  3951  3953  3954  3955  3957  3959  3961  3962  3964  3965  3970
  3972  3973  3974  3976  3980  3989  3991  3992  3994  3999  4000  4003  4005
  4006  4008  4009  4014  4017  4022  4023  4024  4025  4028  4029  4031  4032
  4035  4039  4047  4051  4052  4061  4064  4066  4070  4074  4075  4081  4086
  4087  4091  4092  4093  4096  4097  4100  4101  4104  4107  4111  4112  4113
  4114  4115  4117  4122  4123  4125  4126  4130  4134  4137  4139  4145  4146
  4147  4149  4151  4153  4156  4161  4162  4163  4164  4165  4166  4168  4169
  4176  4182  4183  4185  4186  4191  4193  4199  4201  4203  4204  4205  4207
  4209  4210  4216  4218  4219  4221  4222  4224  4232  4234  4235  4236  4237
  4238  4239  4240  4241  4242  4243  4245  4246  4247  4249  4250  4253  4254
  4255  4256  4257  4262  4264  4268  4270  4274  4276  4278  4280  4281  4284
  4286  4291  4293  4294  4296  4297  4300  4301  4302  4303  4304  4305  4306
  4307  4309  4310  4312  4317  4318  4319  4321  4324  4325  4326  4327  4328
  4330  4337  4338  4339  4361  4362  4363  4365  4369  4370  4381  4386  4388
  4389  4393  4394  4396  4397  4399  4401  4403  4406  4411  4412  4413  4414
  4417  4421  4425  4426  4428  4429  4430  4431  4441  4445  4446  4447  4449
  4453  4461  4464  4465  4466  4467  4468  4469  4471  4472  4474  4478  4481
  4482  4487  4489  4494  4498  4499  4501  4503  4515  4519  4521  4522  4526
  4529  4530  4532  4533  4535  4536  4537  4538  4539  4540  4541  4542  4544
  4545  4546  4547  4548  4551  4554  4557  4559  4563  4567  4568  4570  4572
  4573  4577  4579  4585  4587  4588  4589  4597  4599  4601  4603  4604  4605
  4608  4610  4611  4614  4616  4618  4619  4622  4629  4631  4632  4636  4637
  4638  4647  4656  4663  4668  4670  4671  4672  4674  4676  4677  4678  4679
  4681  4682  4687  4689  4690  4691  4693  4697  4706  4708  4709  4711  4716
  4717  4720  4722  4723  4725  4726  4731  4734  4739  4740  4741  4742  4745
  4746  4748  4749  4752  4755  4757  4765  4769  4770  4779  4784  4788  4792
  4793  4799  4804  4805  4809  4810  4811  4814  4815  4818  4819  4822  4825
  4829  4830  4831  4832  4833  4835  4840  4841  4843  4844  4848  4852  4855
  4857  4863  4864  4865  4867  4869  4871  4874  4879  4880  4881  4882  4883
  4884  4886  4887  4894  4900  4901  4903  4904  4909  4911  4917  4919  4921
  4922  4923  4925  4927  4928  4934  4936  4937  4939  4940  4942  4950  4952
  4953  4954  4955  4956  4957  4958  4959  4960  4962  4963  4964  4966  4967
  4970  4971  4972  4973  4974  4979  4981  4985  4987  4991  4993  4995  4997
  4998  5001  5007  5009  5010  5012  5013  5015  5016  5017  5018  5020  5021
  5022  5023  5025  5026  5028  5033  5034  5035  5036  5038  5042  5043  5044
  5045  5047  5053  5054  5055  5056  5078  5079  5080  5081  5082  5083  5084
  5085  5086  5089  5101  5106  5108  5109  5111  5114  5115  5117  5118  5120
  5122  5124  5127  5132  5133  5134  5135  5139  5143  5147  5148  5150  5151
  5152  5153  5156  5164  5168  5169  5170  5172  5176  5179  5186  5189  5190
  5191  5192  5193  5194  5196  5197  5199  5203  5206  5207  5212  5214  5219
  5223  5224  5226  5228  5240  5244  5246  5247  5251  5254  5255  5257  5258
  5260  5261  5262  5264  5265  5266  5267  5270  5271  5272  5273  5274  5275
  5278  5281  5285  5287  5291  5295  5296  5298  5300  5301  5305  5307  5313
  5315  5316  5317  5326  5328  5330  5331  5333  5334  5335  5338  5340  5341
  5344  5346  5348  5349  5352  5359  5361  5362  5366  5367  5368  5377  5386
  5394  5399  5401  5402  5403  5405  5407  5408  5409  5410  5412  5413  5418
  5420  5421  5422  5424  5428  5437  5439  5440  5442  5447  5448  5451  5453
  5454  5456  5457  5462  5465  5470  5471  5472  5473  5476  5477  5479  5480
  5483  5486  5488  5496  5500  5501  5507  5510  5515  5519  5523  5524  5530
  5535  5536  5540  5541  5542  5545  5546  5549  5550  5553  5556  5560  5561
  5562  5563  5564  5566  5571  5572  5574  5579  5583  5586  5588  5594  5595
  5596  5598  5600  5602  5605  5610  5611  5612  5613  5614  5615  5617  5618
  5625  5631  5632  5635  5640  5642  5648  5650  5652  5653  5656  5658  5659
  5665  5667  5668  5670  5671  5673  5681  5683  5684  5685  5686  5687  5688
  5689  5690  5691  5692  5694  5695  5696  5699  5702  5703  5704  5705  5706
  5711  5713  5717  5719  5723  5725  5727  5729  5730  5733  5735  5740  5742
  5743  5744  5745  5748  5749  5750  5751  5753  5754  5755  5757  5758  5764
  5765  5766  5770  5771  5772  5773  5774  5775  5777  5784  5785  5786  5787
  5807  5808  5809  5810  5814  5816  5817  5820  5822  5823  5826  5829  5831
  5832  5833  5834  5836  5838  5839  5842  5845  5847  5848  5849  5850  5851
  5852  5866  5871  5873  5874  5878  5881  5884  5886  5888  5891  5896  5897
  5898  5899  5902  5906  5910  5911  5913  5914  5915  5916  5926  5930  5931
  5932  5934  5938  5946  5949  5950  5951  5952  5953  5954  5956  5957  5959
  5963  5966  5967  5972  5974  5979  5983  5984  5986  5988  6000  6004  6006
  6007  6011  6014  6015  6017  6018  6020  6021  6022  6023  6024  6025  6026
  6027  6029  6030  6031  6032  6033  6036  6039  6042  6044  6048  6052  6053
  6055  6057  6058  6062  6064  6070  6072  6073  6074  6082  6084  6086  6088
  6089  6090  6093  6095  6096  6099  6101  6103  6104  6107  6114  6116  6117
  6121  6122  6123  6132  6141  6148  6153  6155  6156  6157  6159  6161  6162
  6163  6164  6166  6167  6172  6174  6175  6176  6178  6182  6191  6193  6194
  6196  6201  6202  6205  6207  6208  6210  6211  6216  6219  6224  6225  6226
  6227  6230  6231  6233  6234  6237  6241  6249  6253  6254  6263  6268  6272
  6276  6277  6283  6288  6289  6293  6294  6295  6298  6299  6302  6303  6306
  6309  6313  6314  6315  6316  6317  6319  6324  6325  6327  6328  6332  6336
  6339  6341  6347  6348  6349  6351  6353  6355  6358  6363  6364  6365  6366
  6367  6368  6370  6371  6378  6384  6385  6388  6393  6395  6401  6403  6405
  6406  6407  6409  6411  6412  6418  6420  6421  6423  6424  6426  6434  6435
  6436  6437  6438  6439  6440  6441  6442  6443  6444  6446  6447  6448  6450
  6451  6454  6455  6456  6457  6462  6464  6468  6470  6474  6476  6478  6480
  6481  6484  6490  6492  6493  6495  6496  6499  6500  6501  6503  6504  6505
  6507  6508  6510  6515  6516  6517  6518  6520  6523  6525  6526  6527  6529
  6536  6537  6538  6539  6561  6562  6563  6564  6565  6567  6568  6581  6586
  6588  6589  6591  6594  6597  6598  6600  6602  6604  6607  6612  6613  6614
  6615  6619  6623  6627  6628  6630  6631  6632  6633  6636  6644  6648  6649
  6650  6652  6656  6659  6666  6669  6670  6671  6672  6673  6674  6676  6677
  6679  6683  6686  6687  6692  6694  6699  6703  6704  6706  6708  6720  6724
  6726  6727  6731  6734  6735  6737  6738  6740  6741  6742  6743  6744  6745
  6746  6747  6750  6751  6752  6753  6754  6755  6758  6761  6765  6767  6771
  6775  6776  6778  6780  6781  6785  6787  6793  6795  6796  6797  6806  6808
  6810  6811  6813  6814  6815  6818  6820  6821  6824  6826  6828  6829  6832
  6839  6841  6842  6846  6847  6848  6857  6866  6874  6879  6881  6882  6883
  6885  6887  6889  6890  6892  6893  6898  6900  6901  6902  6904  6908  6917
  6919  6920  6922  6927  6928  6931  6933  6934  6936  6937  6942  6945  6950
  6951  6952  6953  6956  6957  6959  6960  6963  6967  6975  6979  6980  6989
  6992  6994  6998  7002  7003  7009  7014  7015  7019  7020  7021  7024  7025
  7028  7029  7032  7035  7039  7040  7041  7042  7043  7045  7050  7051  7053
  7054  7058  7062  7065  7067  7073  7074  7075  7077  7079  7081  7084  7089
  7090  7091  7092  7093  7094  7096  7097  7104  7110  7111  7114  7119  7121
  7127  7129  7131  7132  7133  7135  7137  7138  7144  7146  7147  7149  7150
  7152  7160  7162  7163  7164  7165  7166  7167  7168  7169  7170  7171  7173
  7174  7175  7177  7178  7181  7182  7183  7184  7185  7190  7192  7196  7198
  7202  7204  7206  7208  7209  7212  7214  7219  7221  7222  7224  7225  7228
  7229  7230  7231  7232  7233  7234  7235  7237  7238  7240  7245  7246  7247
  7249  7252  7253  7254  7255  7256  7258  7265  7266  7267  7289  7290  7291
  7293  7297  7298  7309  7314  7316  7317  7321  7322  7324  7325  7327  7329
  7331  7334  7339  7340  7341  7342  7345  7349  7353  7354  7356  7357  7358
  7359  7369  7373  7374  7375  7377  7381  7389  7392  7393  7394  7395  7396
  7397  7399  7400  7402  7406  7409  7410  7415  7417  7422  7426  7427  7429
  7431  7443  7447  7449  7450  7454  7457  7458  7460  7461  7463  7464  7465
  7466  7467  7468  7469  7470  7472  7473  7474  7475  7476  7479  7482  7485
  7487  7491  7495  7496  7498  7500  7501  7505  7507  7513  7515  7516  7517
  7525  7527  7529  7531  7532  7533  7536  7538  7539  7542  7544  7546  7547
  7550  7557  7559  7560  7564  7565  7566  7575  7584  7591  7596  7598  7599
  7600  7602  7604  7605  7606  7607  7609  7610  7615  7617  7618  7619  7621
  7625  7634  7636  7637  7639  7644  7645  7648  7650  7651  7653  7654  7659
  7662  7667  7668  7669  7670  7673  7674  7676  7677  7680  7683  7685  7693
  7697  7698  7707  7712  7716  7720  7721  7727  7732  7733  7737  7738  7739
  7742  7743  7746  7747  7750  7753  7757  7758  7759  7760  7761  7763  7768
  7769  7771  7772  7776  7780  7783  7785  7791  7792  7793  7795  7797  7799
  7802  7807  7808  7809  7810  7811  7812  7814  7815  7822  7828  7829  7831
  7832  7837  7839  7845  7847  7849  7850  7851  7853  7855  7856  7862  7864
  7865  7867  7868  7870  7878  7880  7881  7882  7883  7884  7885  7886  7887
  7888  7890  7891  7892  7894  7895  7898  7899  7900  7901  7902  7907  7909
  7913  7915  7919  7921  7923  7925  7926  7929  7935  7937  7938  7940  7941
  7943  7944  7945  7946  7948  7949  7950  7951  7953  7954  7956  7961  7962
  7963  7964  7966  7970  7971  7972  7973  7975  7981  7982  7983  7984  8006
  8007  8008  8009  8010  8011  8012  8013  8014  8017  8029  8034  8036  8037
  8039  8042  8043  8045  8046  8048  8050  8052  8055  8060  8061  8062  8063
  8067  8071  8075  8076  8078  8079  8080  8081  8084  8092  8096  8097  8098
  8100  8104  8107  8114  8117  8118  8119  8120  8121  8122  8124  8125  8127
  8131  8134  8135  8140  8142  8147  8151  8152  8154  8156  8168  8172  8174
  8179  8182  8183  8185  8186  8188  8189  8190  8192  8193  8194  8195  8198
  8199  8200  8201  8202  8203  8206  8209  8213  8215  8219  8223  8224  8226
  8228  8229  8233  8235  8241  8243  8244  8245  8254  8256  8258  8259  8261
  8262  8263  8266  8268  8269  8272  8274  8276  8277  8280  8287  8289  8290
  8294  8295  8296  8305  8314  8322  8327  8329  8330  8331  8333  8335  8336
  8337  8338  8340  8341  8346  8348  8349  8350  8352  8356  8365  8367  8368
  8370  8375  8376  8379  8381  8382  8384  8385  8390  8393  8398  8399  8400
  8401  8404  8405  8407  8408  8411  8414  8416  8424  8428  8435  8438  8443
  8447  8451  8452  8458  8463  8464  8468  8469  8470  8473  8474  8477  8478
  8481  8484  8488  8489  8490  8491  8492  8494  8499  8500  8502  8507  8511
  8514  8516  8522  8523  8524  8526  8528  8530  8533  8538  8539  8540  8541
  8542  8543  8545  8546  8553  8559  8560  8563  8568  8570  8576  8578  8580
  8581  8584  8586  8587  8593  8595  8596  8598  8599  8601  8609  8611  8612
  8613  8614  8615  8616  8617  8618  8619  8620  8622  8623  8624  8627  8630
  8631  8632  8633  8634  8639  8641  8645  8647  8651  8653  8655  8657  8658
  8661  8663  8668  8670  8671  8672  8673  8676  8677  8678  8679  8681  8682
  8683  8685  8686  8692  8693  8694  8698  8699  8700  8701  8702  8703  8705
  8712  8713  8714  8715  8735  8736  8737  8738  8742  8744  8745  8748  8750
  8751  8754  8757  8759  8760  8761  8762  8764  8766  8767  8770  8773  8775
  8776  8777  8778  8779  8780  8794  8799  8801  8802  8806  8809  8810  8812
  8814  8816  8819  8824  8825  8826  8827  8830  8834  8838  8839  8841  8842
  8843  8844  8854  8858  8859  8860  8862  8866  8874  8877  8878  8879  8880
  8881  8882  8884  8885  8887  8891  8894  8895  8900  8902  8907  8911  8912
  8914  8916  8928  8932  8934  8935  8939  8942  8943  8945  8946  8948  8949
  8950  8951  8952  8953  8954  8955  8957  8958  8959  8960  8961  8964  8967
  8970  8972  8976  8980  8981  8983  8985  8986  8990  8992  8998  9000  9001
  9002  9010  9012  9014  9016  9017  9018  9021  9023  9024  9027  9029  9031
  9032  9035  9042  9044  9045  9049  9050  9051  9060  9069  9076  9081  9083
  9084  9085  9087  9089  9090  9091  9092  9094  9095  9100  9102  9103  9104
  9106  9110  9119  9121  9122  9124  9129  9130  9133  9135  9136  9138  9139
  9144  9147  9152  9153  9154  9155  9158  9159  9161  9162  9165  9169  9177
  9181  9182  9191  9196  9200  9204  9205  9211  9216  9217  9221  9222  9223
  9226  9227  9230  9231  9234  9237  9241  9242  9243  9244  9245  9247  9252
  9253  9255  9256  9260  9264  9267  9269  9275  9276  9277  9279  9281  9283
  9286  9291  9292  9293  9294  9295  9296  9298  9299  9306  9312  9313  9316
  9321  9323  9329  9331  9333  9334  9335  9337  9339  9340  9346  9348  9349
  9351  9352  9354  9362  9363  9364  9365  9366  9367  9368  9369  9370  9371
  9372  9374  9375  9376  9378  9379  9382  9383  9384  9385  9390  9392  9396
  9398  9402  9404  9406  9408  9409  9412  9418  9420  9421  9423  9424  9427
  9428  9429  9431  9432  9433  9435  9436  9438  9443  9444  9445  9446  9448
  9451  9453  9454  9455  9457  9464  9465  9466  9467  9489  9490  9491  9492
  9493  9495  9496  9509  9514  9516  9517  9519  9522  9525  9526  9528  9530
  9532  9535  9540  9541  9542  9543  9547  9551  9555  9556  9558  9559  9560
  9561  9564  9572  9576  9577  9578  9580  9584  9587  9594  9597  9598  9599
  9600  9601  9602  9604  9605  9607  9611  9614  9615  9620  9622  9627  9631
  9632  9634  9636  9648  9652  9654  9655  9659  9662  9663  9665  9666  9668
  9669  9670  9671  9672  9673  9674  9675  9678  9679  9680  9681  9682  9683
  9686  9689  9693  9695  9699  9703  9704  9706  9708  9709  9713  9715  9721
  9723  9724  9725  9734  9736  9738  9739  9741  9742  9743  9746  9748  9749
  9752  9754  9756  9757  9760  9767  9769  9770  9774  9775  9776  9785  9794
  9802  9807  9809  9810  9811  9813  9815  9817  9818  9820  9821  9826  9828
  9829  9830  9832  9836  9845  9847  9848  9850  9855  9856  9859  9861  9862
  9864  9865  9870  9873  9878  9879  9880  9881  9884  9885  9887  9888  9891
  9895  9903  9907  9908  9917  9922  9926  9930  9931  9937  9942  9943  9947
  9948  9949  9952  9953  9956  9957  9960  9963  9967  9968  9969  9970  9971
  9973  9978  9979  9981  9982  9986  9990  9993  9995 10001 10002 10003 10005
 10007 10009 10012 10017 10018 10019 10020 10021 10022 10024 10025 10032 10038
 10039 10042 10047 10049 10055 10057 10059 10060 10061 10063 10065 10066 10072
 10074 10075 10077 10078 10080 10088 10090 10091 10092 10093 10094 10095 10096
 10097 10098 10099 10101 10102 10103 10105 10106 10109 10110 10111 10112 10113
 10118 10120 10124 10126 10130 10132 10134 10136 10137 10140 10142 10147 10149
 10150 10152 10153 10156 10157 10158 10159 10160 10161 10162 10163 10165 10166
 10168 10173 10174 10175 10177 10180 10181 10182 10183 10184 10186 10193 10194
 10195 10217 10218 10219 10221 10225 10226 10237 10242 10244 10245 10249 10252
 10253 10255 10257 10259 10262 10267 10268 10269 10270 10273 10277 10281 10282
 10284 10285 10286 10287 10297 10301 10302 10303 10305 10309 10317 10320 10321
 10322 10323 10324 10325 10327 10328 10330 10334 10337 10338 10343 10345 10350
 10354 10355 10357 10359 10371 10375 10377 10378 10382 10385 10386 10388 10389
 10391 10392 10393 10394 10395 10396 10397 10398 10400 10401 10402 10403 10404
 10407 10410 10413 10415 10419 10423 10424 10426 10428 10429 10433 10435 10441
 10443 10444 10445 10453 10455 10457 10459 10460 10461 10464 10466 10467 10470
 10472 10474 10475 10478 10485 10487 10488 10492 10493 10494 10503 10512 10519
 10524 10526 10527 10528 10530 10532 10533 10534 10535 10537 10538 10543 10545
 10546 10547 10549 10553 10562 10564 10565 10567 10572 10573 10576 10578 10579
 10581 10582 10587 10590 10595 10596 10597 10598 10601 10602 10604 10605 10608
 10611 10613 10621 10625 10626 10635 10640 10644 10648 10649 10655 10660 10661
 10665 10666 10667 10670 10671 10674 10675 10678 10681 10685 10686 10687 10688
 10689 10691 10696 10697 10699 10700 10704 10708 10711 10713 10719 10720 10721
 10723 10725 10727 10730 10735 10736 10737 10738 10739 10740 10742 10743 10750
 10756 10757 10759 10760 10765 10767 10773 10775 10777 10778 10779 10781 10783
 10784 10790 10792 10793 10795 10796 10798 10806 10808 10809 10810 10811 10812
 10813 10814 10815 10816 10818 10819 10820 10822 10823 10826 10827 10828 10829
 10830 10835 10837 10841 10843 10847 10849 10851 10853 10854 10857 10863 10865
 10866 10868 10869 10871 10872 10873 10874 10876 10877 10878 10879 10881 10882
 10884 10889 10890 10891 10892 10894 10898 10899 10900 10901 10903 10909 10910
 10911 10912 10934 10935 10936 10937 10938 10939 10940 10941 10942 10945 10957
 10962 10964 10965 10967 10970 10971 10973 10974 10976 10978 10980 10983 10988
 10989 10990 10991 10995 10999 11003 11004 11006 11007 11008 11009 11012 11016
 11020 11024 11025 11026 11028 11032 11035 11042 11045 11046 11047 11048 11049
 11050 11052 11053 11055 11059 11062 11063 11068 11070 11075 11079 11080 11082
 11084 11096 11100 11102 11103 11107 11110 11111 11113 11114 11116 11117 11118
 11120 11121 11122 11123 11126 11127 11128 11129 11130 11131 11134 11137 11141
 11143 11147 11151 11152 11154 11156 11157 11161 11163 11169 11171 11172 11173
 11182 11184 11186 11187 11189 11190 11191 11194 11196 11197 11200 11202 11204
 11205 11208 11215 11217 11218 11222 11223 11224 11233 11242 11250 11255 11257
 11258 11259 11261 11263 11264 11265 11266 11268 11269 11274 11276 11277 11278
 11280 11284 11293 11295 11296 11298 11303 11304 11307 11309 11310 11312 11313
 11318 11321 11326 11327 11328 11329 11332 11333 11335 11336 11339 11342 11344
 11352 11356 11357 11363 11366 11371 11375 11379 11380 11386 11391 11392 11396
 11397 11398 11401 11402 11405 11406 11409 11412 11416 11417 11418 11419 11420
 11422 11427 11428 11430 11435 11439 11442 11444 11450 11451 11452 11454 11456
 11458 11461 11466 11467 11468 11469 11470 11471 11473 11474 11481 11487 11488
 11491 11496 11498 11504 11506 11508 11509 11512 11514 11515 11521 11523 11524
 11526 11527 11529 11537 11539 11540 11541 11542 11543 11544 11545 11546 11547
 11548 11550 11551 11552 11555 11558 11559 11560 11561 11562 11567 11569 11573
 11575 11579 11581 11583 11585 11586 11589 11591 11596 11598 11599 11600 11601
 11604 11605 11606 11607 11609 11610 11611 11613 11614 11620 11621 11622 11626
 11627 11628 11629 11630 11631 11633 11640 11641 11642 11643 11663 11664 11665
 11666 11670 11672 11673 11676 11678 11679 11682 11685 11687 11688 11689 11690
 11692 11694 11695 11698 11701 11703 11704 11705 11706 11707 11708
