[ pull_layer ]
 13848 13849 13850 13852 13853 13854 13855 13856 13857 13858 13947 13948 13949
 13950 13951 13952 13953 13955 13956 13957 13958 13959 13981 13982 13983 13984
 14169 14174 14175 14176 14177 14178 14179 14250 14251 14253 14254 14255 14256
 14257 14258 14259 14260 14261 14262 14263 14264 14265 14266 14267 14268 14270
 14272 14273 14274 14275 14276 14277 14278 14279 14280 14281 14282 14283 14284
 14285 14286 14287 14288 14289 14290 14291 14292 14293 14294 14295 14296 14297
 14298 14352 14353 14354 14355 14356 14357 14358 14359 14360 14361 14362 14363
 14364 14365 14366 14367 14368 14369 14370 14371 14372 14394 14395 14396 14397
 14398 14399 14400 14401 14402 14403 14404 14405 14406 14407 14408 14409 14410
 14411 14412 14413 14414 14415 14416 14417 14418 14419 14420 14421 14422 14423
 14424 14425 14426 14427 14428 14429 14430 14431 14432 14433 14434 14435 14436
 14437 14438 14439 14440 14441 14442 14443 14444 14445 14446 14447 14448 14449
 14450 14451 14452 14453 14454 14455 14456 14457 14458 14459 14460 14461 14462
 14463 14464 14465 14487 14488 14489 14490 14491 14492 14493 14494 14495 14496
 14497 14500 14509 14510 14511 14513 14523 14524 14525 14526 14527 14528 14529
 14530 14559 14560 14561 14562 14563 14564 14565 14566 14567 14568 14569 14570
 14571 14572 14573 14574 14575 14576 14577 14578 14579 14665 14666 14667 14668
 14669 14670 14671 14672 14673 14674 14675 14676 14677 14678 14679 14680 14681
 14682 14683 14684 14685 14686 14687 14688 14689 14690 14707 14708 14709 14710
 14720 14771 14772 14773 14774 14775 14776 14777 14778 14779 14780 14781 14782
 14783 14784 14785 14786 14787 14788 14789 14790 14791 14795 14796 14797 14798
 14799 14800 14801 14802 14803 14804 14805 14806 14807 14808 14809 14810 14811
 14812 14975 14976 14977 14978 14979 14980 14981 14982 14983 14984 14985 14986
 14987 14988 14989 14990 15076 15077 15078 15247 15248 15249 15250 15251 15252
 15253 15254 15255 15256 15257 15258 15259 15260 15261 15262 15263 15264 15265
 15266 15267 15310 15311 15312 15313 15314 15315 15316 15317 15318 15319 15320
 15321 15322 15323 15324 15325 15326 15327 15328 15329 15330 15331 15332 15333
 15334 15335 15336 15337 15338 15339 15340 15341 15342 15343 15344 15345 15346
 15347 15348 15349 15350 15351 15352 15353 15354 15355 15356 15357 15358 15359
 15360 15361 15362 15363 15364 15365 15366 15367 15368 15369 15370 15371 15372
 15373 15396 15397 15398 15399 15400 15401 15402 15403 15404 15405 15406 15407
 15408 15409 15410 15411 15412 15413 15414 15415 15416 15417 15418 15419 15420
 15421 15422 15423 15424 15425 15426 15427 15428 15429 15430 15431 15432 15433
 15434 15435 15436 15437 15438 15439 15440 15441 15442 15443 15444 15445 15446
 15447 15448 15449 15450 15451 15452 15453 15454 15455 15456 15457 15458 15459
 15460 15461 15462 15463 15464 15465 15466 15467 15468 15469 15470 15471 15472
 15473 15474 15475 15476 15477 15478 15479 15480 15502 15503 15504 15505 15506
 15507 15508 15509 15510 15511 15512 15513 15514 15515 15516 15517 15518 15519
 15520 15521 15522 15544 15545 15546 15547 15548 15549 15550 15551 15552 15553
 15554 15555 15556 15557 15560 15565 15566 15567 15568 15569 15570 15572 15573
 15574 15579 15580 15581 15582 15583 15584 15585 15852 15854 15855 15856 15857
 15858 15859 15944 15945 15948 15949 15950 15951 15952 15953 15954 15955 15956
 15957 15958 15959 15960 15961 15962 15963 15966 15995 15997 15999 16000 16001
 16003 16004 16005 16006 16007 16008 16009 16010 16011 16012 16013 16014 16015
 16016 16017 16018 16019 16020 16021 16022 16023 16024 16025 16026 16027 16050
 16051 16052 16053 16054 16055 16056 16057 16058 16059 16060 16092 16093 16094
 16095 16096 16097 16098 16099 16100 16101 16102 16103 16104 16105 16106 16107
 16108 16109 16110 16111 16112 16113 16114 16115 16116 16117 16118 16119 16120
 16121 16122 16123 16124 16125 16126 16127 16128 16129 16130 16131 16132 16133
 16134 16135 16136 16137 16138 16139 16140 16141 16143 16149 16157 16158 16159
 16160 16161 16181 16182 16183 16184 16185 16186 16187 16188 16192 16193 16194
 16197 16265 16266 16267 16268 16269 16270 16271 16272 16273 16274 16275 16276
 16277 16278 16279 16280 16281 16282 16283 16284 16285 16286 16287 16288 16289
 16290 16291 16292 16293 16294 16295 16296 16297 16298 16299 16300 16301 16302
 16303 16304 16305 16306 16307 16308 16309 16310 16311 16312 16313 16314 16315
 16316 16317 16318 16319 16320 16321 16322 16323 16324 16325 16326 16327 16328
 16329 16330 16331 16332 16333 16334 16335 16336 16337 16338 16339 16340 16341
 16342 16343 16344 16345 16346 16347 16348 16349 16350 16351 16352 16353 16354
 16355 16356 16357 16358 16359 16360 16361 16362 16363 16364 16365 16366 16367
 16368 16369 16370 16371 16372 16373 16374 16375 16376 16377 16378 16379 16380
 16381 16382 16383 16384 16385 16386 16387 16388 16389 16390 16391 16392 16393
 16394 16395 16396 16397 16398 16399 16400 16401 16402 16403 16404 16405 16406
 16407 16408 16409 16410 16411 16412 16413 16414 16415 16416 16417 16418 16419
 16420 16421 16422 16423 16424 16425 16426 16427 16428 16429 16430 16431 16432
 16433 16434 16435 16436 16437 16438 16439 16440 16441 16442 16443 16444 16445
 16446 16447 16448 16449 16450 16451 16452 16453 16454 16455 16456 16457 16458
 16459 16460 16461 16462 16463 16464 16465 16466 16467 16468 16469 16470 16471
 16472 16473 16474 16475 16476 16477 16478 16479 16480 16481 16482 16483 16484
 16485 16486 16487 16488 16489 16490 16491 16492 16493 16494 16495 16496 16497
 16498 16499 16500 16501 16502 16503 16504 16505 16506 16507 16508 16509 16510
 16511 16512 16513 16514 16515 16516 16517 16518 16519 16520 16521 16522 16523
 16524 16525 16526 16527 16528 16529 16530 16531 16532 16533 16534 16535 16536
 16537 16538 16539 16540 16541 16542 16543 16544 16545 16546 16547 16548 16549
 16550 16551 16552 16553 16554 16555 16556 16557 16558 16559 16560 16561 16562
 16563 16564 16565 16566 16567 16568 16569 16570 16571 16572 16573 16574 16575
 16576 16577 16578 16579 16580 16581 16582 16583 16584 16585 16586 16587 16588
 16589 16590 16591 16592 16593 16594 16595 16596 16597 16598 16599 16600 16601
 16602 16603 16604 16605 16606 16607 16608 16609 16610 16611 16612 16613 16614
 16615 16616 16617 16618 16619 16620 16621 16622 16623 16624 16625 16626 16627
 16628 16629 16630 16631 16632 16633 16634 16635 16636 16637 16638 16639 16640
 16641 16642 16643 16644 16645 16646 16647 16648 16649 16650 16651 16652 16653
 16654 16655 16656 16657 16658 16659 16660 16661 16662 16663 16664 16665 16666
 16667 16668 16669 16670 16671 16672 16673 16674 16675 16676 16677 16678 16679
 16680 16681 16682 16683 16684 16685 16686 16687 16688 16689 16690 16691 16692
 16693 16694 16695 16696 16697 16698 16699 16700 16701 16702 16703 16704 16705
 16706 16707 16708 16709 16710 16711 16712 16713 16714 16715 16716 16717 16718
 16719 16720 16721 16722 16723 16724 16725 16726 16727 16728 16729 16730 16731
 16732 16733 16734 16735 16736 16737 16738 16739 16740 16741 16742 16743 16744
 16745 16746 16747 16748 16749 16750 16751 16752 16753 16754 16755 16756 16757
 16758 16759 16760 16761 16762 16763 16764 16765 16766 16767 16768 16769 16770
 16771 16772 16773 16774 16775 16776 16777 16778 16779 16780 16781 16782 16783
 16784 16785 16786 16787 16788 16789 16790 16791 16792 16793 16794 16795 16796
 16797 16798 16799 16800 16801 16802 16803 16804 16805 16806 16807 16808 16809
 16810 16811 16812 16813 16814 16815 16816 16817 16818 16819 16820 16821 16822
 16823 16824 16825 16826 16827 16828 16829 16830 16831 16832 16833 16834 16835
 16836 16837 16838 16839 16840 16841 16842 16843 16844 16845 16846 16847 16848
 16849 16850 16851 16852 16853 16854 16855 16856 16857 16858 16859 16860 16861
 16862 16863 16864 16865 16866 16867 16868 16869 16870 16871 16872 16873 16874
 16875 16876 16877 16878 16879 16880 16881 16882 16883 16884 16885 16886 16887
 16888 16889 16890 16891 16892 16893 16894 16895 16896 16897 16898 16899 16900
 16901 16902 16903 16904 16905 16906 16907 16908 16909 16910 16911 16912 16913
 16914 16915 16916 16917 16918 16919 16920 16921 16922 16923 16924 16925 16926
 16927 16928 16929 16930 16931 16932 16933 16934 16935 16936 16937 16938 16939
 16940 16941 16942 16943 16944 16945 16946 16947 16948 16949 16950 16951 16952
 16953 16954 16955 16956 16957 16958 16959 16960 16961 16962 16963 16964 16965
 16966 16967 16968 16969 16970 16971 16972 16973 16974 16975 16976 16977 16978
 16979 16980 16981 16982 16983 16984 16985 16986 16987 16988 16989 16990 16991
 16992 16993 16994 16995 16996 16997 16998 16999 17000 17001 17002 17003 17004
 17005 17006 17007 17008 17009 17010 17011 17012 17013 17014 17015 17016 17017
 17018 17019 17020 17021 17022 17023 17024 17025 17026 17027 17028 17029 17030
 17031 17032 17033 17034 17035 17036 17037 17038 17039 17040 17041 17042 17043
 17044 17045 17046 17047 17048 17049 17050 17051 17052 17053 17054 17055 17056
 17057 17058 17059 17060 17061 17062 17063 17064 17065 17066 17067 17068 17069
 17070 17071 17072 17073 17074 17075 17076 17077 17078 17079 17080 17081 17082
 17083 17084 17085 17086 17087 17088 17089 17090 17091 17092 17093 17094 17095
 17096 17097 17098 17099 17100 17101 17102 17103 17104 17105 17106 17107 17108
 17109 17110 17111 17112 17113 17114 17115 17116 17117 17118 17119 17120 17121
 17122 17123 17124 17125 17126 17127 17128 17129 17130 17131 17132 17133 17134
 17135 17136 17137 17138 17139 17140 17141 17142 17143 17144 17145 17146 17147
 17148 17149 17150 17151 17152 17153 17154 17155 17156 17157 17158 17159 17160
 17161 17162 17163 17164 17165 17166 17167 17168 17169 17170 17171 17172 17173
 17174 17175 17176 17177 17178 17179 17180 17181 17182 17183 17184 17185 17186
 17187 17188 17189 17190 17191 17192 17193 17194 17195 17196 17197 17198 17199
 17200 17201 17202 17203 17204 17205 17206 17207 17208 17209 17210 17211 17212
 17213 17214 17215 17216 17217 17218 17219 17220 17221 17222 17223 17224 17225
 17226 17227 17228 17229 17230 17231 17232 17233 17234 17235 17236 17237 17238
 17239 17240 17241 17242 17243 17244 17245 17246 17247 17248 17249 17250 17251
 17252 17253 17254 17255 17256 17257 17258 17259 17260 17261 17262 17263 17264
 17265 17266 17267 17268 17269 17270 17271 17272 17273 17274 17275 17276 17277
 17278 17279 17280 17281 17282 17283 17284 17285 17286 17287 17288 17289 17290
 17291 17292 17293 17294 17295 17296 17297 17298 17299 17300 17301 17302 17303
 17304 17305 17306 17307 17308 17309 17310 17311 17312 17313 17314 17315 17316
 17317 17318 17319 17320 17321 17322 17323 17324 17325 17326 17327 17328 17329
 17330 17331 17332 17333 17334 17335 17336 17337 17338 17339 17340 17341 17342
 17343 17344 17345 17346 17347 17348 17349 17350 17351 17352 17353 17354 17355
 17356 17357 17358 17359 17360 17361 17362 17363 17364 17365 17366 17367 17368
 17369 17370 17371 17372 17373 17374 17375 17376 17377 17378 17379 17380 17381
 17382 17383 17384 17385 17386 17387 17388 17389 17390 17391 17392 17393 17394
 17395 17396 17397 17398 17399 17400 17401 17402 17403 17404 17405 17406 17407
 17408 17409 17410 17411 17412 17413 17414 17415 17416 17417 17418 17419 17420
 17421 17422 17423 17424 17425 17426 17427 17428 17429 17430 17431 17432 17433
 17434 17435 17436 17437 17438 17439 17440 17441 17442 17443 17444 17445 17446
 17447 17448 17449 17450 17451 17452 17453 17454 17455 17456 17457 17458 17459
 17460 17461 17462 17463 17464 17465 17466 17467 17468 17469 17470 17471 17472
 17473 17474 17475 17476 17477 17478 17479 17480 17481 17482 17483 17484 17485
 17486 17487 17488 17489 17490 17491 17492 17493 17494 17495 17496 17497 17498
 17499 17500 17501 17502 17503 17504 17505 17506 17507 17508 17509 17510 17511
 17512 17513 17514 17515 17516 17517 17518 17519 17520 17521 17522 17523 17524
 17525 17526 17527 17528 17529 17530 17531 17532 17533 17534 17535 17536 17537
 17538 17539 17540 17541 17542 17543 17544 17545 17546 17547 17548 17549 17550
 17551 17552 17553 17554 17555 17556 17557 17558 17559 17560 17561 17562 17563
 17564 17565 17566 17567 17568 17569 17570 17571 17572 17573 17574 17575 17576
 17577 17578 17579 17580 17581 17582 17583 17584 17585 17586 17587 17588 17589
 17590 17591 17592 17593 17594 17595 17596 17597 17598 17599 17600 17601 17602
 17603 17604 17605 17606 17607 17608 17609 17610 17611 17612 17613 17614 17615
 17616 17617 17618 17619 17620 17621 17622 17623 17624 17625 17626 17627 17628
 17629 17630 17631 17632 17633 17634 17635 17636 17637 17638 17639 17640 17641
 17642 17643 17644 17645 17646 17647 17648 17649 17650 17651 17652 17653 17654
 17655 17656 17657 17658 17659 17660 17661 17662 17663 17664 17665 17666 17667
 17668 17669 17670 17671 17672 17673 17674 17675 17676 17677 17678 17679 17680
 17681 17682 17683 17684 17685 17686 17687 17688 17689 17690 17691 17692 17693
 17694 17695 17696 17697 17698 17699 17700 17701 17702 17703 17704 17705 17706
 17707 17708 17709 17710 17711 17712 17713 17714 17715 17716 17717 17718 17719
 17720 17721 17722 17723 17724 17725 17726 17727 17728 17729 17730 17731 17732
 17733 17734 17735 17736 17737 17738 17739 17740 17741 17742 17743 17744 17745
 17746 17747 17748 17749 17750 17751 17752 17753 17754 17755 17756 17757 17758
 17759 17760 17761 17762 17763 17764 17765 17766 17767 17768 17769 17770 17771
 17772 17773 17774 17775 17776 17777 17778 17779 17780 17781 17782 17783 17784
 17785 17786 17787 17788 17789 17790 17791 17792 17793 17794 17795 17796 17797
 17798 17799 17800 17801 17802 17803 17804 17805 17806 17807 17808 17809 17810
 17811 17812 17813 17814 17815 17816 17817 17818 17819 17820 17821 17822 17823
 17824 17825 17826 17827 17828 17829 17830 17831 17832 17833 17834 17835 17836
 17837 17838 17839 17840 17841 17842 17843 17844 17845 17846 17847 17848 17849
 17850 17851 17852 17853 17854 17855 17856 17857 17858 17859 17860 17861 17862
 17863 17864 17865 17866 17867 17868 17869 17870 17871 17872 17873 17874 17875
 17876 17877 17878 17879 17880 17881 17882 17883 17884 17885 17886 17887 17888
 17889 17890 17891 17892 17893 17894 17895 17896 17897 17898 17899 17900 17901
 17902 17903 17904 17905 17906 17907 17908 17909 17910 17911 17912 17913 17914
 17915 17916 17917 17918 17919 17920 17921 17922 17923 17924 17925 17926 17927
 17928 17929 17930 17931 17932 17933 17934 17935 17936 17937 17938 17939 17940
 17941 17942 17943 17944 17945 17946 17947 17948 17949 17950 17951 17952 17953
 17954 17955 17956 17957 17958 17959 17960 17961 17962 17963 17964 17965 17966
 17967 17968 17969 17970 17971 17972 17973 17974 17975 17976 17977 17978 17979
 17980 17981 17982 17983 17984 17985 17986 17987 17988 17989 17990 17991 17992
 17993 17994 17995 17996 17997 17998 17999 18000 18001 18002 18003 18004 18005
 18006 18007 18008 18009 18010 18011 18012 18013 18014 18015 18016 18017 18018
 18019 18020 18021 18022 18023 18024 18025 18026 18027 18028 18029 18030 18031
 18032 18033 18034 18035 18036 18037 18038 18039 18040 18041 18042 18043 18044
 18045 18046 18047 18048 18049 18050 18051 18052 18053 18054 18055 18056 18057
 18058 18059 18060 18061 18062 18063 18064 18065 18066 18067 18068 18069 18070
 18071 18072 18073 18074 18075 18076 18077 18078 18079 18080 18081 18082 18083
 18084 18085 18086 18087 18088 18089 18090 18091 18092 18093 18094 18095 18096
 18097 18098 18099 18100 18101 18102 18103 18104 18105 18106 18107 18108 18109
 18110 18111 18112 18113 18114 18115 18116 18117 18118 18119 18120 18121 18122
 18123 18124 18125 18126 18127 18128 18129 18130 18131 18132 18133 18134 18135
 18136 18137 18138 18139 18140 18141 18142 18143 18144 18145 18146 18147 18148
 18149 18150 18151 18152 18153 18154 18155 18156 18157 18158 18159 18160 18161
 18162 18163 18164 18165 18166 18167 18168 18169 18170 18171 18172 18173 18174
 18175 18176 18177 18178 18179 18180 18181 18182 18183 18184 18185 18186 18187
 18188 18189 18190 18191 18192 18193 18194 18195 18196 18197 18198 18199 18200
 18201 18202 18203 18204 18205 18206 18207 18208 18209 18210 18211 18212 18213
 18214 18215 18216 18217 18218 18219 18220 18221 18222 18223 18224 18225 18226
 18227 18228 18229 18230 18231 18232 18233 18234 18235 18236 18237 18238 18239
 18240 18241 18242 18243 18244 18245 18246 18247 18248 18249 18250 18251 18252
 18253 18254 18255 18256 18257 18258 18259 18260 18261 18262 18263 18264 18265
 18266 18267 18268 18269 18270 18271 18272 18273 18274 18275 18276 18277 18278
 18279 18280 18281 18282 18283 18284 18285 18286 18287 18288 18289 18290 18291
 18292 18293 18294 18295 18296 18297 18298 18299 18300 18301 18302 18303 18304
 18305 18306 18307 18308 18309 18310 18311 18312 18313 18314 18315 18316 18317
 18318 18319 18320 18321 18322 18323 18324 18325 18326 18327 18328 18329 18330
 18331 18332 18333 18334 18335 18336 18337 18338 18339 18340 18341 18342 18343
 18344 18345 18346 18347 18348 18349 18350 18351 18352 18353 18354 18355 18356
 18357 18358 18359 18360 18361 18362 18363 18364 18365 18366 18367 18368 18369
 18370 18371 18372 18373 18374 18375 18376 18377 18378 18379 18380 18381 18382
 18383 18384 18385 18386 18387 18388 18389 18390 18391 18392 18393 18394 18395
 18396 18397 18398 18399 18400 18401 18402 18403 18404 18405 18406 18407 18408
 18409 18410 18411 18412 18413 18414 18415 18416 18417 18418 18419 18420 18421
 18422 18423 18424 18425 18426 18427 18428 18429 18430 18431 18432 18433 18434
 18435 18436 18437 18438 18439 18440 18441 18442 18443 18444 18445 18446 18447
 18448 18449 18450 18451 18452 18453 18454 18455 18456 18457 18458 18459 18460
 18461 18462 18463 18464 18465 18466 18467 18468 18469 18470 18471 18472 18473
 18474 18475 18476 18477 18478 18479 18480 18481 18482 18483 18484 18485 18486
 18487 18488 18489 18490 18491 18492 18493 18494 18495 18496 18497 18498 18499
 18500 18501 18502 18503 18504 18505 18506 18507 18508 18509 18510 18511 18512
 18513 18514 18515 18516 18517 18518 18519 18520 18521 18522 18523 18524 18525
 18526 18527 18528 18529 18530 18531 18532 18533 18534 18535 18536 18537 18538
 18539 18540 18541 18542 18543 18544 18545 18546 18547 18548 18549 18550 18551
 18552 18553 18554 18555 18556 18557 18558 18559 18560 18561 18562 18563 18564
 18565 18566 18567 18568 18569 18570 18571 18572 18573 18574 18575 18576 18577
 18578 18579 18580 18581 18582 18583 18584 18585 18586 18587 18588 18589 18590
 18591 18592 18593 18594 18595 18596 18597 18598 18599 18600 18601 18602 18603
 18604 18605 18606 18607 18608 18609 18610 18611 18612 18613 18614 18615 18616
 18617 18618 18619 18620 18621 18622 18623 18624 18625 18626 18627 18628 18629
 18630 18631 18632 18633 18634 18635 18636 18637 18638 18639 18640 18641 18642
 18643 18644 18645 18646 18647 18648 18649 18650 18651 18652 18653 18654 18655
 18656 18657 18658 18659 18660 18661 18662 18663 18664 18665 18666 18667 18668
 18669 18670 18671 18672 18673 18674 18675 18676 18677 18678 18679 18680 18681
 18682 18683 18684 18685 18686 18687 18688 18689 18690 18691 18692 18693 18694
 18695 18696 18697 18698 18699 18700 18701 18702 18703 18704 18705 18706 18707
 18708 18709 18710 18711 18712 18713 18714 18715 18716 18717 18718 18719 18720
 18721 18722 18723 18724 18725 18726 18727 18728 18729 18730 18731 18732 18733
 18734 18735 18736 18737 18738 18739 18740 18741 18742 18743 18744 18745 18746
 18747 18748 18749 18750 18751 18752 18753 18754 18755 18756 18757 18758 18759
 18760 18761 18762 18763 18764 18765 18766 18767 18768 18769 18770 18771 18772
 18773 18774 18775 18776 18777 18778 18779 18780 18781 18782 18783 18784 18785
 18786 18787 18788 18789 18790 18791 18792 18793 18794 18795 18796 18797 18798
 18799 18800 18801 18802 18803 18804 18805 18806 18807 18808 18809 18810 18811
 18812 18813 18814 18815 18816 18817 18818 18819 18820 18821 18822 18823 18824
 18825 18826 18827 18828 18829 18830 18831 18832 18833 18834 18835 18836 18837
 18838 18839 18840 18841 18842 18843 18844 18845 18846 18847 18848 18849 18850
 18851 18852 18853 18854 18855 18856 18857 18858 18859 18860 18861 18862 18863
 18864 18865 18866 18867 18868 18869 18870 18871 18872 18873 18874 18875 18876
 18877 18878 18879 18880 18881 18882 18883 18884 18885 18886 18887 18888 18889
 18890 18891 18892 18893 18894 18895 18896 18897 18898 18899 18900 18901 18902
 18903 18904 18905 18906 18907 18908 18909 18910 18911 18912 18913 18914 18915
 18916 18917 18918 18919 18920 18921 18922 18923 18924 18925 18926 18927 18928
 18929 18930 18931 18932 18933 18934 18935 18936 18937 18938 18939 18940 18941
 18942 18943 18944 18945 18946 18947 18948 18949 18950 18951 18952 18953 18954
 18955 18956 18957 18958 18959 18960 18961 18962 18963 18964 18965 18966 18967
 18968 18969 18970 18971 18972 18973 18974 18975 18976 18977 18978 18979 18980
 18981 18982 18983 18984 18985 18986 18987 18988 18989 18990 18991 18992 18993
 18994 18995 18996 18997 18998 18999 19000 19001 19002 19003 19004 19005 19006
 19007 19008 19009 19010 19011 19012 19013 19014 19015 19016 19017 19018 19019
 19020 19021 19022 19023 19024 19025 19026 19027 19028 19029 19030 19031 19032
 19033 19034 19035 19036 19037 19038 19039 19040 19041 19042 19043 19044 19045
 19046 19047 19048 19049 19050 19051 19052 19053 19054 19055 19056 19057 19058
 19059 19060 19061 19062 19063 19064 19065 19066 19067 19068 19069 19070 19071
 19072 19073 19074 19075 19076 19077 19078 19079 19080 19081 19082 19083 19084
 19085 19086 19087 19088 19089 19090 19091 19092 19093 19094 19095 19096 19097
 19098 19099 19100 19101 19102 19103 19104 19105 19106 19107 19108 19109 19110
 19111 19112 19113 19114 19115 19116 19117 19118 19119 19120 19121 19122 19123
 19124 19125 19126 19127 19128 19129 19130 19131 19132 19133 19134 19135 19136
 19137 19138 19139 19140 19141 19142 19143 19144 19145 19146 19147 19148 19149
 19150 19151 19152 19153 19154 19155 19156 19157 19158 19159 19160 19161 19162
 19163 19164 19165 19166 19167 19168 19169 19170 19171 19172 19173 19174 19175
 19176 19177 19178 19179 19180 19181 19182 19183 19184 19185 19186 19187 19188
 19189 19190 19191 19192 19193 19194 19195 19196 19197 19198 19199 19200 19201
 19202 19203 19204 19205 19206 19207 19208 19209 19210 19211 19212 19213 19214
 19215 19216 19217 19218 19219 19220 19221 19222 19223 19224 19225 19226 19227
 19228 19229 19230 19231 19232 19233 19234 19235 19236 19237 19238 19239 19240
 19241 19242 19243 19244 19245 19246 19247 19248 19249 19250 19251 19252 19253
 19254 19255 19256 19257 19258 19259 19260 19261 19262 19263 19264 19265 19266
 19267 19268 19269 19270 19271 19272 19273 19274 19275 19276 19277 19278 19279
 19280 19281 19282 19283 19284 19285 19286 19287 19288 19289 19290 19291 19292
 19293 19294 19295 19296 19297 19298 19299 19300 19301 19302 19303 19304 19305
 19306 19307 19308 19309 19310 19311 19312 19313 19314 19315 19316 19317 19318
 19319 19320 19321 19322 19323 19324 19325 19326 19327 19328 19329 19330 19331
 19332 19333 19334 19335 19336 19337 19338 19339 19340 19341 19342 19343 19344
 19345 19346 19347 19348 19349 19350 19351 19352 19353 19354 19355 19356 19357
 19358 19359 19360 19361 19362 19363 19364 19365 19366 19367 19368 19369 19370
 19371 19372 19373 19374 19375 19376 19377 19378 19379 19380 19381 19382 19383
 19384 19385 19386 19387 19388 19389 19390 19391 19392 19393 19394 19395 19396
 19397 19398 19399 19400 19401 19402 19403 19404 19405 19406 19407 19408 19409
 19410 19411 19413 19414 19415 19416 19417 19418 19419 19420 19421 19422 19423
 19424 19425 19426 19427 19428 19429 19430 19431 19432 19433 19434 19435 19436
 19437 19438 19439 19440 19441 19442 19443 19444 19445 19446 19447 19448 19449
 19450 19451 19452 19453 19454 19455 19456 19457 19458 19459 19460 19461 19462
 19463 19464 19465 19466 19467 19468 19469 19470 19471 19472 19473 19474 19475
 19476 19477 19478 19479 19480 19481 19482 19483 19484 19485 19486 19487 19488
 19489 19490 19491 19492 19493 19494 19495 19496 19497 19498 19499 19500 19501
 19502 19503 19504 19505 19506 19507 19508 19509 19510 19511 19512 19513 19514
 19515 19516 19517 19518 19519 19520 19521 19522 19523 19524 19525 19526 19527
 19528 19529 19530 19531 19532 19533 19534 19535 19536 19537 19538 19539 19540
 19541 19542 19543 19544 19545 19546 19547 19548 19549 19550 19551 19552 19553
 19554 19555 19556 19557 19558 19559 19560 19561 19562 19563 19564 19565 19566
 19567 19568 19569 19570 19572 19574 19575 19577 19581 19583 19584 19585 19586
 19587 19588 19589 19590 19591 19592 19593 19594 19595 19596 19597 19598 19599
 19600 19601 19602 19603 19604 19605 19606 19607 19608 19609 19610 19611 19612
 19613 19614 19615 19616 19617 19618 19619 19620 19625 19626 19627 19628 19629
 19630 19631 19632 19633 19634 19635 19636 19637 19638 19639 19640 19641 19642
 19643 19644 19645 19646 19647 19648 19649 19650 19651 19652 19653 19654 19655
 19656 19657 19658 19659 19660 19661 19662 19663 19664 19665 19666 19667 19668
 19669 19670 19671 19672 19673 19674 19675 19676 19677 19678 19679 19680 19681
 19682 19683 19684 19685 19686 19687 19688 19689 19690 19691 19692 19693 19694
 19695 19696 19697 19698 19699 19700 19701 19702 19703 19704 19705 19706 19707
 19708 19709 19710 19711 19712 19713 19714 19715 19716 19717 19718 19719 19720
 19721 19722 19723 19724 19725 19726 19727 19728 19729 19730 19731 19732 19733
 19734 19735 19736 19737 19738 19739 19740 19741 19742 19743 19744 19745 19746
 19747 19748 19749 19750 19751 19752 19753 19754 19755 19756 19757 19758 19759
 19760 19761 19762 19763 19764 19765 19766 19767 19768 19769 19770 19771 19772
 19773 19774 19775 19776 19777 19778 19779 19780 19781 19782 19783 19784 19785
 19786 19787 19788 19789 19790 19791 19792 19793 19794 19795 19796 19797 19798
 19799 19800 19801 19802 19803 19804 19805 19806 19807 19808 19809 19810 19811
 19812 19813 19814 19815 19816 19817 19818 19819 19820 19821 19822 19823 19824
 19825 19826 19827 19828 19829 19830 19831 19832 19833 19834 19835 19836 19837
 19838 19839 19840 19841 19842 19843 19844 19845 19846 19847 19848 19849 19850
 19851 19852 19853 19854 19855 19856 19857 19858 19859 19860 19861 19862 19863
 19864 19865 19866 19867 19868 19869 19870 19871 19872 19873 19874 19875 19876
 19877 19878 19879 19880 19881 19882 19883 19884 19885 19886 19887 19888 19889
 19890 19891 19892 19893 19894 19895 19896 19897 19898 19899 19900 19901 19902
 19903 19904 19905 19906 19907 19908 19909 19910 19911 19912 19913 19914 19915
 19916 19917 19918 19919 19920 19921 19922 19923 19924 19925 19926 19927 19928
 19929 19930 19931 19932 19933 19934 19935 19936 19937 19938 19939 19940 19941
 19942 19943 19944 19945 19946 19947 19948 19949 19950 19951 19952 19953 19954
 19955 19956 19957 19958 19959 19960 19961 19962 19963 19964 19965 19966 19967
 19968 19969 19970 19971 19972 19973 19974 19975 19976 19977 19978 19979 19980
 19981 19982 19983 19984 19985 19986 19987 19988 19989 19990 19991 19992 19993
 19994 19995 19996 19997 19998 19999 20000 20001 20002 20003 20004 20005 20006
 20007 20008 20009 20010 20011 20012 20013 20014 20015 20016 20017 20018 20019
 20020 20021 20022 20023 20024 20025 20026 20027 20028 20029 20030 20031 20032
 20033 20034 20035 20036 20037 20038 20039 20040 20041 20042 20043 20044 20045
 20046 20047 20048 20049 20050 20051 20052 20053 20054 20055 20056 20057 20058
 20059 20060 20061 20062 20063 20064 20065 20066 20067 20068 20069 20070 20071
 20072 20073 20074 20075 20076 20077 20078 20079 20080 20081 20082 20083 20084
 20085 20086 20087 20088 20089 20090 20091 20092 20093 20094 20095 20096 20097
 20098 20099 20100 20101 20102 20103 20104 20105 20106 20107 20108 20109 20110
 20111 20112 20113 20114 20115 20116 20117 20118 20119 20120 20121 20122 20123
 20124 20125 20126 20127 20128 20129 20130 20131 20132 20133 20134 20135 20136
 20137 20138 20139 20140 20141 20142 20143 20144 20145 20146 20147 20148 20149
 20150 20151 20152 20153 20154 20155 20156 20157 20158 20159 20160 20161 20162
 20163 20164 20165 20166 20167 20168 20169 20170 20171 20172 20173 20174 20175
 20176 20177 20178 20179 20180 20181 20182 20183 20184 20185 20186 20187 20188
 20189 20190 20191 20192 20193 20194 20195 20196 20197 20198 20199 20200 20201
 20202 20203 20204 20205 20206 20207 20208 20209 20210 20211 20212 20213 20214
 20215 20216 20217 20218 20219 20220 20221 20222 20223 20224 20225 20226 20227
 20228 20229 20230 20231 20232 20233 20234 20235 20236 20237 20238 20239 20240
 20241 20242 20243 20244 20245 20246 20247 20248 20249 20250 20251 20252 20253
 20254 20255 20256 20257 20258 20259 20260 20261 20262 20263 20264 20265 20266
 20267 20268 20269 20270 20271 20272 20273 20274 20275 20276 20277 20278 20279
 20280 20281 20282 20283 20284 20285 20286 20287 20288 20289 20290 20291 20292
 20293 20294 20295 20296 20297 20298 20299 20300 20301 20302 20303 20304 20305
 20306 20307 20308 20309 20310 20311 20312 20313 20314 20315 20316 20317 20318
 20319 20320 20321 20322 20323 20324 20325 20326 20327 20328 20329 20330 20331
 20332 20333 20334 20335 20336 20337 20338 20339 20340 20341 20342 20343 20344
 20345 20346 20347 20348 20349 20350 20351 20352 20353 20354 20355 20356 20357
 20358 20359 20360 20361 20362 20363 20364 20365 20366 20367 20368 20369 20370
 20371 20372 20373 20374 20375 20376 20377 20378 20379 20380 20381 20382 20383
 20384 20385 20386 20387 20388 20389 20390 20391 20392 20393 20394 20395 20396
 20397 20398 20399 20400 20401 20402 20403 20404 20405 20406 20407 20408 20409
 20410 20411 20412 20413 20414 20415 20416 20417 20418 20419 20420 20421 20422
 20423 20424 20425 20426 20427 20428 20429 20430 20431 20432 20433 20434 20435
 20436 20437 20438 20439 20440 20441 20442 20443 20444 20445 20446 20447 20448
 20449 20450 20451 20452 20453 20454 20455 20456 20457 20458 20459 20460 20461
 20462 20463 20464 20465 20466 20467 20468 20469 20470 20471 20472 20473 20474
 20475 20476 20477 20478 20479 20480 20481 20482 20483 20484 20485 20486 20487
 20488 20489 20490 20491 20492 20493 20494 20495 20496 20497 20498 20499 20500
 20501 20502 20503 20504 20505 20506 20507 20508 20509 20510 20511 20512 20513
 20514 20515 20516 20517 20518 20519 20520 20521 20522 20523 20524 20525 20526
 20527 20528 20529 20530 20531 20532 20533 20534 20535 20536 20537 20538 20539
 20540 20541 20542 20543 20544 20545 20546 20547 20548 20549 20550 20551 20552
 20553 20554 20555 20556 20557 20558 20559 20560 20561 20562 20563 20564 20565
 20566 20567 20568 20569 20570 20571 20572 20573 20574 20575 20576 20577 20578
 20579 20580 20581 20582 20583 20584 20585 20586 20587 20588 20589 20590 20591
 20592 20593 20594 20595 20596 20597 20598 20599 20600 20601 20602 20603 20604
 20605 20606 20607 20608 20609 20610 20611 20612 20613 20614 20615 20616 20617
 20618 20619 20620 20621 20622 20623 20624 20625 20626 20627 20628 20629 20630
 20631 20632 20633 20634 20635 20636 20637 20638 20639 20640 20641 20642 20643
 20644 20645 20646 20647 20648 20649 20650 20651 20652 20653 20654 20655 20656
 20657 20658 20659 20660 20661 20662 20663 20664 20665 20666 20667 20668 20669
 20670 20671 20672 20673 20674 20675 20676 20677 20678 20679 20680 20681 20682
 20683 20684 20685 20686 20687 20688 20689 20690 20691 20692 20693 20694 20695
 20696 20697 20698 20699 20700 20701 20702 20703 20704 20705 20706 20707 20708
 20709 20710 20711 20712 20713 20714 20715 20716 20717 20718 20719 20720 20721
 20722 20723 20724 20725 20726 20727 20728 20729 20730 20731 20732 20733 20734
 20735 20736 20737 20738 20741 20744 20746 20747 20748 20749 20750 20751 20752
 20753 20754 20755 20756 20757 20758 20759 20760 20761 20762 20763 20764 20765
 20766 20767 20768 20769 20770 20771 20772 20773 20774 20775 20776 20777 20778
 20779 20780 20781 20782 20783 20784 20785 20786 20787 20788 20789 20790 20791
 20792 20793 20794 20795 20796 20797 20798 20799 20800 20801 20802 20803 20804
 20805 20806 20807 20808 20809 20810 20811 20812 20813 20814 20815 20816 20817
 20818 20819 20820 20821 20822 20823 20824 20825 20826 20827 20828 20829 20830
 20831 20832 20833 20834 20835 20836 20837 20838 20839 20840 20841 20842 20843
 20844 20845 20846 20847 20848 20849 20850 20851 20852 20853 20854 20855 20856
 20857 20858 20859 20860 20861 20862 20863 20864 20865 20866 20867 20868 20869
 20870 20871 20872 20873 20874 20875 20876 20877 20878 20879 20880 20881 20882
 20883 20884 20885 20886 20887 20888 20889 20890 20891 20892 20893 20894 20895
 20896 20897 20898 20899 20900 20901 20902 20903 20904 20905 20906 20907 20908
 20909 20910 20911 20912 20913 20914 20915 20916 20917 20918 20919 20920 20921
 20922 20923 20924 20925 20926 20927 20928 20929 20930 20931 20932 20933 20934
 20935 20936 20937 20938 20939 20940 20941 20942 20943 20944 20945 20946 20947
 20948 20949 20950 20951 20952 20953 20954 20955 20956 20957 20958 20959 20960
 20961 20962 20963 20964 20965 20966 20967 20968 20969 20970 20971 20972 20973
 20974 20975 20976 20977 20978 20979 20980 20981 20982 20983 20984 20985 20986
 20987 20988 20989 20990 20991 20992 20993 20994 20995 20996 20997 20998 20999
 21000 21001 21002 21003 21004 21005 21006 21007 21008 21009 21010 21011 21012
 21013 21014 21015 21016 21017 21018 21019 21020 21021 21022 21023 21024 21025
 21026 21027 21028 21029 21030 21031 21032 21033 21034 21035 21036 21037 21038
 21039 21040 21041 21042 21043 21044 21045 21046 21047 21048 21049 21050 21051
 21052 21053 21054 21055 21056 21057 21058 21059 21060 21061 21062 21063 21064
 21065 21066 21067 21068 21069 21070 21071 21072 21073 21074 21075 21076 21077
 21078 21079 21080 21081 21082 21083 21084 21085 21086 21087 21088 21089 21090
 21091 21092 21093 21094 21095 21096 21097 21098 21099 21100 21101 21102 21103
 21104 21105 21106 21107 21108 21109 21110 21111 21112 21113 21114 21115 21116
 21117 21118 21119 21120 21121 21122 21123 21124 21125 21126 21127 21128 21129
 21130 21131 21132 21133 21134 21135 21136 21137 21138 21139 21140 21141 21142
 21143 21144 21145 21146 21147 21148 21149 21150 21151 21152 21153 21154 21155
 21156 21157 21158 21159 21160 21161 21162 21163 21164 21165 21166 21167 21168
 21169 21170 21171 21172 21173 21174 21175 21176 21177 21178 21179 21180 21181
 21182 21183 21184 21185 21186 21187 21188 21189 21190 21191 21192 21193 21194
 21195 21196 21197 21198 21199 21200 21201 21202 21203 21204 21205 21206 21207
 21208 21209 21210 21211 21212 21213 21214 21215 21216 21217 21218 21219 21220
 21221 21222 21223 21224 21225 21226 21227 21228 21229 21230 21231 21232 21233
 21234 21235 21236 21237 21238 21239 21240 21241 21242 21243 21244 21245 21246
 21247 21248 21249 21250 21251 21252 21253 21254 21255 21256 21257 21258 21259
 21260 21261 21262 21263 21264 21265 21266 21267 21268 21269 21270 21271 21272
 21273 21274 21275 21276 21277 21278 21279 21280 21281 21282 21283 21284 21285
 21286 21287 21288 21289 21290 21291 21292 21293 21294 21295 21296 21297 21298
 21299 21300 21301 21302 21303 21304 21305 21306 21307 21308 21309 21310 21311
 21312 21313 21314 21315 21316 21317 21318 21319 21320 21321 21322 21323 21324
 21325 21326 21327 21328 21329 21330 21331 21332 21333 21334 21335 21336 21337
 21338 21339 21340 21341 21342 21343 21344 21345 21346 21347 21348 21349 21350
 21351 21352 21353 21354 21355 21356 21357 21358 21359 21360 21361 21362 21363
 21364 21365 21366 21367 21368 21369 21370 21371 21372 21373 21374 21375 21376
 21377 21378 21379 21380 21381 21382 21383 21384 21385 21386 21387 21388 21389
 21390 21391 21392 21393 21394 21395 21396 21397 21398 21399 21400 21401 21402
 21403 21404 21405 21406 21407 21408 21409 21410 21411 21412 21413 21414 21415
 21416 21417 21418 21419 21420 21421 21422 21423 21424 21425 21426 21427 21428
 21429 21430 21431 21432 21433 21434 21435 21436 21437 21438 21439 21440 21441
 21442 21443 21444 21445 21446 21447 21448 21449 21450 21451 21452 21453 21454
 21455 21456 21457 21458 21459 21460 21461 21462 21463 21464 21465 21466 21467
 21468 21469 21470 21471 21472 21473 21474 21475 21476 21477 21478 21479 21480
 21481 21482 21483 21484 21485 21486 21487 21488 21489 21490 21491 21492 21493
 21494 21495 21496 21497 21498 21499 21500 21501 21502 21503 21504 21505 21506
 21507 21508 21509 21510 21511 21512 21513 21514 21515 21516 21517 21518 21519
 21520 21521 21522 21523 21524 21525 21526 21527 21528 21529 21530 21531 21532
 21533 21534 21535 21536 21537 21538 21539 21540 21541 21542 21543 21544 21545
 21546 21547 21548 21549 21550 21551 21552 21553 21554 21555 21556 21557 21558
 21559 21560 21561 21562 21563 21564 21565 21566 21567 21568 21569 21570 21571
 21572 21573 21574 21575 21576 21577 21578 21579 21580 21581 21582 21583 21584
 21585 21586 21587 21588 21589 21590 21591 21592 21593 21594 21595 21596 21597
 21598 21599 21600 21601 21602 21603 21604 21605 21606 21607 21608 21609 21610
 21611 21612 21613 21614 21615 21616 21617 21618 21619 21620 21621 21622 21623
 21624 21625 21626 21627 21628 21629 21630 21631 21632 21633 21634 21635 21636
 21637 21638 21639 21640 21641 21642 21643 21644 21645 21646 21647 21648 21649
 21650 21651 21652 21653 21654 21655 21656 21657 21658 21659 21660 21661 21662
 21663 21664 21665 21666 21667 21668 21669 21670 21671 21672 21673 21674 21675
 21676 21677 21678 21679 21680 21681 21682 21683 21684 21685 21686 21687 21688
 21689 21690 21691 21692 21693 21694 21695 21696 21697 21698 21699 21700 21701
 21702 21703 21704 21705 21706 21707 21712 21715 21718 21719 21720 21721 21732
 21733 21734 21735 21736 21737 21738 21739 21740 21741 21742 21743 21744 21745
 21746 21747 21748 21749 21750 21751 21752 21753 21754 21755 21756 21757 21758
 21759 21760 21761 21762 21763 21764 21765 21766 21767 21768 21769 21770 21771
 21772 21773 21774 21775 21776 21777 21778 21779 21780 21781 21782 21783 21784
 21785 21786 21787 21788 21789 21790 21791 21792 21793 21794 21795 21796 21797
 21798 21802 21803 21824 21832 21863 21864 21865 21866 21867 21868 21869 21870
 21871 21872 21873 21874 21875 21876 21877 21878 21879 21880 21881 21882 21883
 21884 21885 21886 21887 21888 21889 21890 21891 21892 21893 21894 21895 21896
 21897 21898 21899 21900 21901 21902 21903 21904 21905 21906 21907 21908 21909
 21910 21911 21912 21913 21914 21915 21916 21917 21918 21919 21920 21921 21922
 21923 21924 21925 21926 21927 21928 21929 21930 21931 21932 21933 21934 21935
 21936 21937 21938 21939 21940 21941 21963 21964 21965 21966 21967 21968 21969
 21970 21971 21972 21973 21974 21975 21976 21977 21978 21979 21980 21981 21982
 21983 22026 22027 22028 22029 22030 22031 22032 22033 22034 22035 22036 22037
 22038 22039 22040 22041 22042 22043 22044 22045 22046 22047 22067 22149 22150
 22151 22152 22153 22154 22155 22156 22157 22158 22159 22160 22161 22162 22163
 22164 22165 22166 22167 22168 22169 22170 22171 22172 22173 22174 22175 22176
 22177 22178 22179 22180 22181 22182 22183 22184 22185 22186 22187 22188 22189
 22190 22191 22192 22193 22194 22195 22196 22197 22198 22199 22200 22201 22202
 22203 22204 22205 22206 22207 22208 22209 22210 22211 22212 22213 22277 22278
 22279 22280 22281 22282 22283 22284 22285 22286 22287 22288 22289 22290 22291
 22292 22293 22294 22295 22296 22297 22319 22320 22321 22322 22323 22324 22325
 22326 22327 22328 22329 22330 22331 22332 22333 22334 22335 22336 22337 22338
 22339 22361 22362 22363 22364 22365 22366 22367 22368 22369 22370 22371 22372
 22373 22374 22375 22376 22377 22378 22379 22380 22381 22382 22397 22398 22399
 22400 22401 22402 22448 22449 22450 22451 22452 22453 22454 22455 22456 22457
 22458 22459 22460 22461 22462 22463 22464 22465 22466 22467 22468 22469 22470
 22471 22472 22473 22474 22475 22476 22477 22478 22479 22480 22481 22482 22483
 22484 22485 22486 22487 22488 22489 22490 22491 22492 22493 22494 22495 22496
 22497 22498 22499 22500 22501 22502 22503 22504 22505 22506 22507 22508 22509
 22510 22511 22512 22513 22514 22515 22516 22518 22521 22534 22535 22536 22537
 22538 22539 22540 22541 22542 22543 22544 22545 22546 22547 22548 22549 22550
 22551 22552 22553 22554 22555 22556 22557 22558 22559 22560 22561 22562 22563
 22564 22565 22566 22567 22568 22569 22570 22571 22572 22573 22574 22575 22576
 22577 22578 22579 22580 22581 22582 22583 22584 22585 22586 22587 22588 22589
 22590 22591 22592 22593 22594 22595 22596 22597 22598 22599 22600 22601 22602
 22603 22604 22605 22606 22607 22608 22609 22610 22611 22612 22613 22614 22615
 22616 22617 22618 22619 22620 22621 22622 22623 22624 22625 22626 22627 22628
 22629 22630 22631 22632 22633 22634 22635 22636 22637 22638 22639 22640 22641
 22642 22643 22644 22645 22646 22647 22648 22649 22650 22651 22652 22653 22654
 22655 22656 22657 22658 22659 22660 22661 22662 22663 22664 22665 22666 22667
 22668 22669 22670 22671 22672 22673 22674 22675 22676 22677 22678 22679 22680
 22681 22682 22683 22684 22685 22686 22687 22688 22689 22690 22691 22692 22693
 22694 22695 22696 22697 22698 22699 22700 22701 22702 22703 22704 22705 22706
 22707 22708 22709 22710 22711 22712 22713 22714 22715 22716 22717 22718 22719
 22720 22721 22722 22723 22724 22725 22726 22727 22728 22729 22730 22731 22732
 22733 22734 22735 22736 22737 22738 22739 22740 22741 22742 22743 22744 22745
 22746 22747 22748 22749 22750 22751 22752 22753 22754 22755 22756 22757 22758
 22759 22760 22761 22762 22763 22764 22765 22766 22767 22768 22769 22770 22771
 22772 22773 22774 22775 22776 22777 22778 22779 22780 22781 22782 22783 22784
 22785 22786 22787 22788 22789 22791 22792 22793 22794 22795 22799 22800 22801
 22804 22810 22811 22812 22813 22814 22815 22816 22817 22818 22819 22820 22821
 22822 22823 22824 22825 22826 22827 22828 22829 22830 22831 22832 22833 22834
 22835 22836 22837 22838 22839 22840 22841 22842 22843 22844 22845 22846 22847
 22848 22849 22850 22851 22852 22853 22854 22855 22856 22857 22858 22859 22860
 22861 22862 22863 22864 22865 22866 22867 22868 22869 22870 22871 22872 22873
 22874 22875 22876 22877 22878 22879 22880 22881 22882 22883 22884 22885 22886
 22887 22888 22889 22891 22892 22893 22901 22902 22903 22904 22905 22906 22907
 22908 22909 22910 22911 22912 22913 22914 22915 22916 22917 22918 22919 22920
 22921 22922 22923 22924 22925 22926 22927 22928 22929 22930 22931 22932 22933
 22934 22935 22936 22937 22938 22939 22940 22941 22942 22943 22944 22945 22946
 22947 22948 22949 22950 22951 22952 22953 22954 22955 22956 22957 22958 22959
 22960 22961 22962 22963 22964 22965 22966 22967 22968 22969 22970 22971 22972
 22973 22974 22975 22976 22977 22978 22979 22980 22981 22982 22983 22984 22985
 22986 22987 22988 22989 22990 22991 22992 22993 22994 22995 22996 22997 22998
 22999 23000 23001 23002 23003 23004 23005 23006 23007 23008 23009 23010 23011
 23012 23013 23014 23015 23016 23017 23018 23019 23020 23021 23022 23023 23024
 23025 23026 23027 23028 23029 23030 23031 23032 23033 23034 23035 23036 23037
 23038 23039 23040 23041 23042 23043 23044 23045 23046 23047 23048 23049 23050
 23051 23052 23053 23054 23055 23056 23057 23058 23059 23060 23061 23062 23063
 23064 23065 23066 23067 23068 23069 23070 23071 23072 23073 23074 23075 23076
 23077 23078 23079 23080 23081 23082 23083 23084 23085 23086 23087 23088 23089
 23090 23091 23092 25369 25370 25371 25372 25373 25374 25375 25376 25377 25378
 25379 25380 25381 25382 25383 25384 25385 25386 25387 25388 25389 25390 25391
 25392 25393 25394 25395 25396 25397 25398 25399 25400 25401 25402 25403 25404
 25405 25406 25407 25408 25409 25410 25411 25412 25413 25414 25415 25416 25417
 25418 25422 25435 25454 25455 25456 25457 25458 25459 25460 25461 25462 25463
 25464 25465 25466 25467 25468 25469 25470 25471 25472 25473 25474 25491 25492
 25493 25494 25496 25497 25498 25499 25500 25501 25502 25503 25504 25505 25506
 25507 25508 25509 25510 25511 25512 25513 25514 25515 25516 25517 25518 25519
 25520 25521 25522 25523 25524 25525 25526 25527 25528 25529 25536 25537 25538
 25539 25540 25541 25542 25543 25544 25545 25546 25547 25548 25549 25550 25551
 25552 25553 25554 25555 25556 25557 25558 25559 25560 25682 25683 25684 25685
 25686 25687 25688 25689 25690 25691 25692 25693 25694 25695 25696 25697 25699
 25701 25747 25748 25749 25750 25751 25752 25753 25754 25755 25756 25757 25758
 25759 25760 25761 25762 25763 25764 25765 25766 25767 25768 25769 25770 25771
 25772 25773 25774 25775 25776 25777 25778 25779 25780 25781 25782 25783 25784
 25785 25786 25787 25788 25789 25790 25812 25813 25814 25815 25816 25817 25818
 25819 25820 25821 25822 25823 25824 25825 25826 25827 25828 25829 25830 25831
 25832 25833 25834 25835 25836 25837 25838 25839 25840 25841 25842 25843 25844
 25845 25846 25847 25848 25849 25850 25851 25852 25853 25854 25855 25856 25857
 25858 25859 25860 25861 25862 25863 25864 25865 25866 25867 25868 25869 25870
 25871 25872 25873 25874 25892 25893 25894 25910 25911 25912 25913 25915 25918
 25919 25920 25921 25922 25923 25924 25925 25926 25927 25928 25929 25930 25931
 25932 25933 25934 25935 25936 25937 25938 25939 25961 25962 25963 25964 25965
 25966 25967 25968 25969 25970 25971 25972 25973 25974 25975 25976 25977 25978
 25979 25980 25981 25982 25983 25984 25985 25986 25987 25988 25989 25990 25991
 25992 25993 25994 25995 25996 25997 25998 25999 26000 26001 26002 26025 26026
 26027 26028 26029 26030 26031 26032 26033 26034 26035 26036 26037 26038 26039
 26040 26041 26042 26043 26044 26045 26046 26068 26069 26070 26071 26072 26073
 26074 26075 26076 26082 26083 26084 26086 26110 26111 26112 26113 26114 26115
 26116 26117 26152 26153 26154 26155 26156 26157 26158 26159 26161 26216 26217
 26218 26219 26220 26221 26222 26223 26224 26225 26226 26227 26228 26229 26230
 26231 26232 26233 26234 26235 26236 26237 26238 26239 26240 26241 26242 26243
 26244 26245 26246 26247 26248 26249 26250 26251 26252 26253 26254 26255 26256
 26257 26258 26281 26282 26283 26284 26285 26286 26287 26288 26289 26290 26291
 26292 26293 26294 26295 26296 26297 26298 26299 26300 26301 26302 26303 26304
 26305 26306 26307 26308 26309 26310 26311 26312 26313 26314 26315 26316 26317
 26318 26319 26320 26321 26322 26323 26345 26346 26347 26348 26349 26350 26351
 26352 26353 26354 26355 26356 26357 26358 26359 26360 26361 26362 26363 26364
 26365 26366 26367 26368 26369 26370 26371 26372 26373 26409 26410 26412 26413
 26414 26415 26416 26417 26418 26419 26420 26421 26422 26423 26424 26425 26426
 26427 26428 26429 26430 26431 26433 26434 26436 26440 26481 26483 26584 26585
 26586 26587 26588 26589 26590 26591 26592 26593 26961 26962 26963 26964 26965
 26966 26967 26968 27350 27351 27353 27355 27359 27360 27361 27362 27363 27364
 27365 27366 27367 27368 27369 27370 27371 27372 27373 27374 27375 27376 27377
 27378 27379 27380 27381 27382 27383 27384 27385 27386 27387 27388 27389 27390
 27391 27392 27393 27394 27395 27396 27397 27398 27399 27400 27401 27402 27403
 27446 27447 27448 27449 27450 27451 27452 27453 27454 27455 27456 27457 27458
 27459 27460 27461 27462 27463 27464 27465 27466 27467 27468 27469 27470 27471
 27472 27473 27474 27475 27476 27477 27478 27479 27480 27481 27482 27483 27484
 27485 27486 27487 27509 27510 27511 27512 27513 27514 27515 27516 27517 27518
 27519 27520 27521 27522 27523 27524 27525 27526 27527 27528 27529 27530 27531
 27532 27533 27534 27535 27536 27537 27538 27539 27540 27541 27542 27543 27544
 27545 27546 27547 27548 27549 27550 27551 27574 27575 27576 27577 27578 27579
 27580 27581 27582 27583 27584 27585 27586 27587 27588 27589 27590 27591 27592
 27593 27594 27595 27596 27597 27598 27599 27600 27601 27602 27603 27604 27605
 27606 27607 27608 27609 27610 27611 27612 27613 27614 27615 27616 27617 27618
 27619 27620 27621 27622 27623 27624 27625 27626 27627 27628 27629 27630 27631
 27632 27633 27634 27635 27636 27637 27638 27639 27640 27645 27646 27647 27648
 27649 27650 27651 27652 27653 27654 27655 27656 27657 27658 27659 27660 27661
 27662 27663 27664 27665 27666 27667 27668 27669 27670 27671 27672 27673 27674
 27675 27676 27677 27678 27679 27680 27681 27682 27683 27684 27685 27686 27687
 27688 27689 27690 27691 27692 27693 27694 27695 27696 27697 27698 27699 27700
 27701 27702 27703 27704 27705 27706 27707 27708 27709 27710 27711 27712 27713
 27714 27715 27716 27717 27718 27719 27720 27721 27722 27723 27724 27725 27726
 27727 27728 27729 27730 27731 27732 27733 27734 27735 27736 27737 27738 27739
 27740 27741 27742 27743 27744 27745 27746 27747 27748 27749 27750 27751 27752
 27753 27754 27755 27756 27757 27758 27759 27760 27761 27762 27763 27764 27765
 27766 27767 27768 27769 27770 27771 27772 27773 27774 27775 27776 27777 27778
 27779 27780 27781 27782 27783 27784 27785 27786 27787 27788 27789 27790 27791
 27792 27793 27794 27795 27796 27797 27798 27799 27800 27801 27802 27803 27805
 27808 27809 27810 27811 27812 27813 27814 27816 27830 27831 27832 27833 27834
 27835 27836 27837 27838 27839 27840 27841 27842 27843 27844 27845 27846 27847
 27848 27849 27850 27851 27852 27853 27854 27855 27856 27857 27858 27859 27860
 27861 27862 27863 27864 27865 27866 27867 27868 27870 27873 27874 27875 27876
 27877 27878 27879 27880 27881 27882 27883 27884 27885 27886 27887 27888 27889
 27890 27891 27892 27893 27894 27895 27896 27897 27898 27899 27900 27901 27902
 27903 27904 27905 27906 27907 27908 27909 27910 27911 27912 27913 27914 27915
 27916 27917 27918 27919 27920 27921 27922 27923 27924 27925 27926 27927 27928
 27929 27930 27931 27932 27933 27934 27935 27936 27937 27938 27939 27940 27941
 27942 27943 27944 27945 27946 27947 27948 27949 27950 27951 27952 27953 27954
 27955 27956 27957 27958 27959 27960 27961 27962 27963 27964 27965 27966 27967
 27968 27969 27970 27971 27972 27973 27974 27975 27976 27977 27978 27979 27980
 27981 27982 27983 27984 27985 27986 27987 27988 27989 27990 27991 27992 27993
 27994 27995 27996 27997 27998 27999 28000 28001 28002 28004 28005 28006 28007
 28008 28010 28015 28016 28017 28018 28019 28036 28037 28038 28039 28040 28041
 28042 28043 28044 28045 28046 28047 28048 28049 28050 28051 28052 28053 28054
 28055 28056 28057 28058 28059 28060 28061 28062 28063 28064 28065 28066 28067
 28068 28069 28070 28071 28072 28073 28074 28075 28076 28077 28078 28079 28080
 28081 28082 28083 28084 28085 28086 28087 28088 28089 28090 28091 28092 28093
 28094 28095 28096 28097 28098 28099 28100 28101 28102 28103 28104 28105 28106
 28107 28108 28109 28110 28111 28112 28113 28114 28121 28128 28132 28135 28222
 28223 28224 28225 28226 28227 28228 28229 28230 28231 28232 28233 28234 28235
 28236 28237 28238 28239 28240 28241 28242 28264 28265 28266 28267 28268 28269
 28270 28271 28272 28273 28274 28275 28276 28277 28278 28279 28280 28281 28282
 28283 28284 28285 28308 28309 28310 28311 28312 28313 28314 28315 28316 28317
 28318 28319 28320 28321 28322 28323 28324 28325 28326 28327 28328 28329 28330
 28331 28332 28333 28334 28335 28336 28337 28338 28339 28340 28341 28342 28343
 28344 28345 28346 28347 28348 28349 28371 28372 28373 28374 28375 28376 28377
 28378 28379 28380 28381 28382 28383 28384 28385 28386 28387 28388 28389 28390
 28391 28413 28414 28415 28416 28417 28418 28419 28420 28421 28422 28423 28424
 28425 28426 28427 28428 28429 28430 28431 28432 28433 28434 28435 28436 28437
 28438 28439 28440 28441 28442 28443 28444 28445 28446 28447 28448 28449 28450
 28451 28452 28453 28454 28455 28456 28457 28458 28459 28460 28461 28462 28463
 28464 28465 28466 28467 28468 28469 28470 28471 28472 28473 28474 28475 28476
 28477 28478 28479 28480 28481 28482 28483 28484 28485 28486 28487 28488 28489
 28490 28491 28492 28493 28494 28495 28496 28497 28498 28499 28500 28501 28502
 28503 28504 28505 28506 28507 28508 28509 28510 28511 28512 28513 28514 28515
 28516 28517 28518 28519 28520 28521 28522 28523 28524 28525 28526 28527 28528
 28529 28530 28531 28532 28533 28534 28535 28537 28538 28539 28540 28541 28542
 28543 28544 28545 28546 28547 28548 28549 28550 28551 28552 28553 28554 28555
 28556 28557 28558 28559 28560 28561 28562 28584 28585 28586 28587 28588 28589
 28590 28591 28592 28593 28594 28597 28598 28601 28602 28604 28630 28631 28634
 28639 28724 28725 28726 28727 28728 28729 28857 28859 28961 28962 28964 28965
 28966 28967 29068 29252 29253 29254 29256 29265 29266 29267 29268 29269 29270
 29271 29272 29273 29274 29275 29276 29277 29278 29279 29307 29310 29311 29318
 29319 29320 29321 29333 29334 29335 29336 29337 29338 29339 29340 29341 29342
 29921 29922 29923 29924 29925 29926 29927 29928 29929 29930 29931 29943 29944
 29945 29946 29947 29948 29949 29950 29951 29952 29953 29954 29955 29956 29957
 29958 29959 29960 29961 29962 29963 29964 29965 29966 29967 29968 29969 29970
 29971 29972 29973 29974 29975 29976 29977 29978 29979 29980 29985 29986 29987
 29989 30009 30010 30011 30013 30034 30035 30052 30053 30054 30055 30056 30057
 30058 30059 30060 30061 30062 30063 30064 30065 30066 30067 30068 30069 30070
 30071 30072 30073 30074 30076 30077 30078 30079 30080 30081 30084 30095 30096
 30097 30098 30099 30100 30101 30102 30103 30104 30105 30106 30107 30108 30109
 30110 30111 30112 30114 30116 30117 30118 30119 30120 30121 30122 30123 30124
 30125 30126 30127 30128 30129 30130 30131 30132 30133 30134 30135 30136 30137
 30138 30139 30140 30141 30142 30143 30144 30145 30146 30147 30148 30149 30150
 30151 30152 30153 30158 30159 30160 30161 30162 30163 30165 30166 30168 30170
 30179 30180 30181 30182 30183 30184 30185 30186 30187 30188 30189 30190 30191
 30192 30193 30194 30195 30196 30197 30198 30199 30200 30201 30202 30203 30204
 30205 30206 30207 30208 30209 30210 30211 30212 30213 30214 30215 30216 30217
 30218 30219 30220 30221 30222 30223 30224 30225 30226 30227 30228 30237 30238
 30239 30240 30241 30242 30243 30244 30245 30246 30247 30248 30249 30250 30251
 30252 30253 30254 30255 30256 30257 30258 30259 30260 30261 30262 30263 30264
 30265 30266 30267 30268 30269 30270 30271 30272 30273 30274 30275 30276 30277
 30278 30279 30280 30281 30282 30283 30284 30285 30286 30287 30288 30289 30290
 30291 30292 30293 30294 30295 30296 30297 30298 30299 30300 30301 30302 30303
 30304 30305 30306 30307 30308 30309 30310 30311 30312 30313 30314 30315 30316
 30317 30318 30319 30320 30321 30322 30323 30324 30325 30326 30327 30328 30329
 30330 30331 30332 30333 30334 30335 30336 30337 30338 30339 30340 30341 30342
 30343 30344 30345 30346 30347 30348 30349 30350 30351 30352 30353 30354 30355
 30356 30357 30358 30359 30360 30361 30362 30363 30364 30365 30366 30367 30368
 30369 30370 30371 30372 30373 30374 30375 30376 30377 30378 30379 30380 30381
 30382 30383 30384 30385 30386 30387 30388 30389 30390 30391 30392 30393 30394
 30395 30396 30397 30398 30399 30400 30402 30407 30408 30409 30410 30411 30412
 30413 30414 30415 30416 30417 30418 30419 30420 30428 30429 30430 30431 30432
 30433 30434 30435 30436 30437 30438 30439 30440 30441 30442 30443 30444 30445
 30446 30447 30448 30449 30450 30451 30452 30453 30454 30455 30456 30457 30458
 30459 30460 30461 30462 30463 30464 30465 30466 30467 30468 30469 30470 30471
 30472 30473 30474 30475 30476 30477 30478 30479 30480 30481 30482 30483 30484
 30485 30486 30487 30488 30489 30490 30491 30492 30493 30494 30495 30496 30497
 30498 30499 30500 30501 30502 30503 30504 30505 30506 30507 30508 30509 30510
 30511 30512 30513 30514 30515 30516 30517 30518 30519 30520 30521 30522 30523
 30524 30525 30526 30527 30528 30529 30530 30531 30532 30533 30534 30535 30536
 30537 30538 30539 30540 30541 30542 30543 30544 30545 30546 30547 30548 30549
 30550 30551 30552 30553 30554 30555 30556 30557 30558 30559 30560 30561 30562
 30563 30564 30565 30566 30567 30568 30569 30570 30571 30572 30573 30574 30575
 30576 30577 30578 30579 30580 30581 30582 30583 30584 30585 30586 30587 30588
 30589 30590 30591 30592 30593 30594 30595 30596 30597 30598 30599 30600 30601
 30602 30603 30604 30605 30606 30607 30608 30609 30610 30611 30612 30613 30614
 30615 30616 30617 30618 30619 30620 30621 30622 30623 30624 30625 30626 30627
 30628 30629 30630 30631 30632 30633 30634 30635 30636 30637 30638 30639 30640
 30641 30642 30643 30644 30645 30646 30647 30648 30649 30650 30651 30652 30653
 30654 30655 30656 30657 30658 30659 30660 30661 30662 30663 30664 30665 30666
 30667 30668 30669 30670 30671 30672 30673 30674 30675 30676 30677 30678 30679
 30680 30681 30682 30683 30684 30685 30686 30687 30688 30689 30690 30691 30692
 30693 30694 30695 30696 30697 30698 30699 30700 30701 30702 30703 30704 30705
 30706 30707 30708 30709 30710 30711 30712 30713 30714 30715 30716 30717 30718
 30719 30720 30721 30722 30723 30724 30725 30726 30727 30728 30729 30730 30731
 30732 30733 30734 30735 30736 30737 30738 30739 30740 30741 30742 30743 30744
 30745 30746 30747 30748 30749 30750 30751 30752 30753 30754 30755 30756 30757
 30758 30759 30760 30761 30762 30763 30764 30765 30766 30767 30768 30769 30770
 30771 30772 30773 30774 30775 30776 30777 30778 30779 30780 30781 30782 30783
 30784 30785 30786 30787 30788 30789 30790 30791 30792 30793 30794 30795 30796
 30797 30798 30799 30800 30801 30802 30803 30804 30805 30806 30807 30808 30809
 30810 30811 30812 30813 30814 30815 30816 30817 30818 30819 30820 30821 30822
 30823 30824 30825 30826 30827 30828 30829 30830 30831 30832 30833 30834 30835
 30836 30837 30838 30839 30840 30841 30842 30843 30844 30845 30846 30847 30848
 30849 30850 30851 30852 30853 30854 30855 30856 30857 30858 30859 30860 30861
 30862 30863 30864 30865 30866 30867 30868 30869 30870 30871 30872 30873 30874
 30875 30876 30877 30878 30879 30880 30881 30882 30883 30884 30885 30886 30887
 30888 30889 30890 30891 30892 30893 30894 30895 30896 30897 30898 30899 30900
 30901 30902 30903 30904 30905 30906 30907 30908 30909 30910 30911 30912 30913
 30914 30915 30916 30917 30918 30919 30920 30921 30922 30923 30924 30925 30926
 30927 30928 30929 30930 30931 30932 30933 30934 30935 30936 30937 30938 30939
 30940 30941 30942 30943 30944 30945 30946 30947 30948 30949 30950 30951 30952
 30953 30954 30955 30956 30957 30958 30959 30960 30961 30962 30963 30964 30965
 30966 30967 30968 30969 30970 30971 30972 30973 30974 30975 30976 30977 30978
 30979 30980 30981 30982 30983 30984 30985 30986 30987 30988 30989 30990 30991
 30992 30993 30994 30995 30996 30997 30998 30999 31000 31001 31002 31003 31004
 31005 31006 31007 31008 31009 31010 31011 31012 31013 31014 31015 31016 31017
 31018 31019 31020 31021 31022 31023 31024 31025 31026 31037 31038 31039 31040
 31041 31043 31044 31060 31061 31062 31063 31064 31065 31066 31067 31068 31069
 31070 31071 31072 31073 31074 31075 31076 31077 31078 31079 31080 31102 31103
 31104 31105 31106 31107 31108 31109 31110 31111 31112 31113 31114 31115 31116
 31117 31118 31119 31120 31121 31122 31123 31146 31147 31148 31149 31150 31151
 31152 31153 31154 31155 31156 31157 31158 31159 31160 31161 31162 31163 31164
 31165 31166 31172 31173 31174 31175 31176 31177 31178 31179 31180 31181 31182
 31183 31184 31185 31186 31187 31188 31189 31190 31191 31192 31193 31194 31195
 31196 31197 31198 31199 31200 31201 31202 31203 31204 31205 31206 31207 31208
 31212 31213 31214 31215 31245 31246 31248 31249 31250 31251 31252 31253 31254
 31255 31256 31257 31258 31259 31260 31261 31262 31263 31264 31265 31266 31267
 31269 31270 31271 31272 31273 31274 31275 31276 31277 31278 31279 31280 31281
 31282 31283 31284 31285 31286 31287 31288 31289 31290 31291 31292 31293 31294
 31295 31296 31297 31298 31299 31300 31301 31302 31303 31304 31305 31306 31307
 31308 31309 31310 31311 31312 31313 31314 31315 31316 31317 31318 31319 31320
 31321 31322 31323 31324 31325 31326 31327 31328 31330 31333 31355 31357 31394
 31395 31396 31397 31398 31399 31400 31401 31402 31403 31404 31405 31406 31407
 31408 31409 31410 31411 31412 31413 31414 31415 31416 31417 31418 31419 31420
 31421 31422 31423 31424 31425 31426 31427 31428 31429 31430 31431 31432 31433
 31434 31435 31436 31437 31438 31439 31440 31441 31442 31443 31444 31445 31446
 31447 31448 31449 31450 31451 31452 31453 31454 31455 31456 31457 31458 31459
 31460 31461 31462 31463 31464 31465 31466 31467 31468 31469 31470 31471 31472
 31473 31474 31475 31476 31477 31478 31479 31480 31481 31482 31483 31484 31485
 31486 31487 31488 31489 31490 31491 31492 31493 31494 31495 31496 31497 31498
 31499 31500 31501 31502 31503 31504 31505 31506 31507 31508 31509 31510 31511
 31512 31513 31514 31515 31516 31517 31518 31519 31520 31521 31522 31523 31524
 31525 31526 31527 31528 31529 31530 31531 31532 31533 31534 31535 31536 31587
 31588 31589 31591 31593 31594 31596 31597 31598 31600 31601 31602 31603 31604
 31605 31606 31607 31608 31609 31610 31611 31612 31613 31614 31615 31616 31617
 31618 31619 31620 31642 31643 31644 31645 31646 31647 31648 31649 31650 31651
 31652 31653 31654 31655 31656 31657 31658 31659 31660 31661 31662 31663 31664
 31665 31666 31667 31668 31669 31670 31671 31672 31673 31674 31675 31676 31677
 31678 31679 31680 31681 31682 31683 31689 31690 31691 31692 31693 31694 31695
 31696 31700 31701 31702 31703 31704 31705 31709 31710 31711 31712 31716 31728
 31729 31730 31731 31732 31733 31734 31735 31736 31737 31738 31739 31740 31741
 31742 31743 31744 31745 31746 31747 31748 31749 31750 31751 31752 31753 31754
 31755 31756 31757 31758 31759 31760 31761 31762 31763 31764 31765 31766 31767
 31768 31769 31770 31771 31772 31773 31774 31775 31776 31777 31778 31779 31780
 31781 31782 31783 31784 31785 31786 31787 31788 31789 31790 31791 31792 31793
 31794 31795 31796 31797 31798 31799 31800 31801 31802 31803 31804 31805 31806
 31807 31808 31809 31810 31811 31812 31813 31817 31818 31819 31820 31821 31822
 31823 31824 31825 31826 31827 31828 31829 31830 31831 31832 31833 31834 31835
 31836 31837 31838 31839 31840 31841 31842 31843 31844 31845 31846 31847 31848
 31849 31850 31851 31852 31853 31854 31855 31856 31857 31858 31860 31861 31862
 31863 31864 31865 31868 31869 31870 31874 31880 31882 31883 31884 31885 31886
 31894 31895 31896 31897 31898 31899 31901 31902 31905 31906 31907 31908 31909
 31910 31911 31912 31913 31914 31915 31916 31917 31918 31919 31920 31921 31922
 31923 31924 31925 31926 31927 31928 31929 31930 31931 31932 31933 31934 31935
 31936 31937 31938 31939 31940 31941 31942 31943 31944 31945 31946 31947 31948
 31949 31950 31951 31952 31953 31954 31955 31956 31957 31959 31960 31961 31962
 31963 31964 31965 31966 31967 31968 31969 31970 31971 31972 31973 31974 31975
 31976 31977 31984 31987 31994 31996 31997 32021 32022 32023 32024 32025 32026
 32027 32028 32029 32030 32031 32032 32033 32034 32035 32036 32037 32038 32039
 32040 32041 32093 32094 32098 32099 32100 32101 32102 32103 32104 32105 32106
 32107 32108 32109 32110 32111 32112 32113 32114 32115 32116 32117 32118 32119
 32120 32121 32122 32123 32124 32125 32126 32127 32128 32129 32130 32131 32132
 32133 32134 32135 32136 32137 32138 32139 32147 32148 32149 32150 32151 32152
 32153 32154 32155 32156 32157 32158 32159 32160 32161 32162 32163 32164 32165
 32166 32167 32168 32169 32170 32180 32181 32185 32186 32188 32197 32198 32199
 32200 32201 32202 32203 32204 32205 32206 32207 32208 32209 32210 32211 32212
 32213 32214 32215 32216 32217 32218 32219 32220 32221 32222 32223 32224 32225
 32226 32227 32228 32229 32230 32231 32232 32233 32234 32235 32236 32237 32238
 32239 32240 32241 32242 32243 32244 32245 32246 32247 32248 32249 32250 32251
 32252 32253 32254 32255 32256 32257 32258 32259 32260 32261 32262 32263 32264
 32265 32266 32267 32268 32269 32270 32271 32272 32273 32274 32275 32276 32277
 32278 32279 32280 32281 32282 32283 32284 32285 32286 32287 32288 32289 32290
 32291 32292 32293 32294 32295 32296 32297 32298 32299 32300 32301 32302 32303
 32304 32305 32306 32307 32308 32309 32310 32311 32312 32313 32314 32315 32316
 32317 32318 32319 32320 32321 32322 32323 32324 32325 32326 32327 32328 32329
 32330 32331 32332 32333 32334 32335 32336 32337 32338 32339 32340 32341 32342
 32343 32344 32345 32346 32347 32348 32349 32350 32351 32352 32353 32354 32355
 32356 32357 32358 32359 32360 32361 32362 32363 32364 32365 32366 32367 32368
 32369 32370 32371 32372 32373 32374 32375 32376 32377 32378 32379 32380 32381
 32382 32383 32384 32385 32386 32387 32388 32389 32390 32391 32392 32393 32394
 32395 32396 32397 32398 32399 32400 32401 32402 32403 32404 32405 32406 32407
 32408 32409 32410 32411 32412 32413 32414 32415 32416 32417 32418 32419 32420
 32421 32422 32423 32424 32425 32426 32427 32428 32429 32430 32431 32432 32433
 32434 32435 32436 32437 32438 32439 32440 32441 32442 32443 32444 32445 32446
 32447 32448 32449 32450 32451 32452 32453 32454 32455 32456 32457 32458 32459
 32460 32461 32462 32463 32464 32465 32466 32467 32468 32469 32470 32471 32472
 32473 32474 32475 32476 32477 32478 32479 32480 32481 32482 32483 32484 32485
 32486 32487 32488 32489 32490 32491 32492 32493 32494 32495 32496 32497 32498
 32499 32500 32501 32502 32503 32504 32505 32506 32507 32508 32509 32510 32511
 32512 32513 32514 32515 32516 32517 32518 32519 32520 32521 32522 32523 32524
 32525 32526 32527 32528 32529 32530 32531 32532 32533 32534 32535 32536 32537
 32538 32539 32540 32541 32542 32543 32544 32545 32546 32547 32548 32549 32550
 32551 32552 32553 32554 32555 32556 32557 32558 32559 32560 32561 32562 32563
 32564 32565 32566 32567 32568 32569 32570 32571 32572 32573 32574 32575 32576
 32577 32578 32579 32580 32581 32582 32583 32584 32585 32586 32587 32588 32589
 32590 32591 32592 32593 32594 32595 32596 32597 32598 32599 32600 32601 32602
 32603 32604 32605 32606 32607 32608 32609 32610 32611 32612 32613 32614 32615
 32616 32617 32618 32619 32620 32621 32622 32623 32624 32625 32626 32627 32628
 32629 32630 32631 32632 32633 32634 32635 32636 32637 32638 32639 32640 32641
 32642 32643 32644 32645 32646 32647 32648 32649 32650 32651 32652 32653 32654
 32655 32656 32657 32658 32659 32660 32661 32662 32663 32664 32665 32666 32667
 32668 32669 32670 32671 32672 32673 32674 32675 32676 32677 32678 32679 32680
 32681 32682 32683 32684 32685 32686 32687 32688 32689 32690 32691 32692 32693
 32694 32695 32696 32697 32698 32699 32700 32701 32702 32703 32704 32705 32706
 32707 32708 32709 32710 32711 32712 32713 32714 32715 32716 32717 32718 32719
 32720 32721 32722 32723 32724 32725 32726 32727 32728 32729 32730 32731 32732
 32733 32734 32735 32736 32737 32738 32739 32740 32741 32742 32743 32744 32745
 32746 32747 32748 32749 32750 32751 32752 32753 32754 32755 32756 32757 32758
 32759 32760 32761 32762 32763 32764 32765 32766 32767 32768 32769 32770 32771
 32772 32773 32774 32775 32776 32777 32778 32779 32780 32781 32782 32783 32784
 32785 32786 32787 32788 32789 32790 32791 32792 32793 32794 32795 32796 32797
 32798 32799 32800 32801 32802 32803 32804 32805 32806 32807 32808 32809 32810
 32811 32812 32813 32814 32815 32816 32817 32818 32819 32820 32821 32822 32823
 32824 32825 32826 32827 32828 32829 32830 32831 32832 32833 32834 32835 32836
 32837 32838 32839 32840 32841 32842 32843 32844 32845 32846 32847 32848 32849
 32850 32851 32852 32853 32854 32855 32856 32857 32858 32859 32860 32861 32862
 32863 32864 32865 32866 32867 32868 32869 32870 32871 32872 32873 32874 32875
 32876 32877 32878 32879 32880 32881 32882 32883 32884 32885 32886 32887 32888
 32889 32890 32891 32892 32893 32894 32895 32896 32897 32898 32899 32900 32901
 32902 32903 32904 32905 32906 32907 32908 32909 32910 32911 32912 32913 32914
 32915 32916 32917 32918 32919 32920 32921 32922 32923 32924 32925 32926 32927
 32928 32929 32930 32931 32932 32933 32934 32935 32936 32937 32938 32939 32940
 32941 32942 32943 32944 32945 32946 32947 32948 32949 32950 32951 32952 32953
 32954 32955 32956 32957 32958 32959 32960 32961 32962 32963 32964 32965 32966
 32967 32968 32969 32970 32971 32972 32973 32974 32975 32976 32977 32978 32979
 32980 32981 32982 32983 32984 32985 32986 32987 32988 32989 32990 32991 32992
 32993 32994 32995 32996 32997 32998 32999 33000 33001 33002 33003 33004 33005
 33006 33007 33008 33009 33010 33011 33012 33013 33014 33015 33016 33017 33018
 33019 33020 33021 33022 33023 33024 33025 33026 33027 33028 33029 33030 33031
 33032 33033 33034 33035 33036 33037 33038 33039 33040 33041 33042 33043 33044
 33045 33046 33047 33048 33049 33050 33051 33052 33053 33054 33055 33056 33057
 33058 33059 33060 33061 33062 33063 33064 33065 33066 33067 33068 33069 33070
 33071 33072 33073 33074 33075 33076 33077 33078 33079 33080 33081 33082 33083
 33084 33085 33086 33087 33088 33089 33090 33091 33092 33093 33094 33095 33096
 33097 33098 33099 33100 33101 33102 33103 33104 33105 33106 33107 33108 33109
 33110 33111 33112 33113 33114 33115 33116 33117 33118 33119 33120 33121 33122
 33123 33124 33125 33126 33127 33128 33129 33130 33131 33132 33133 33134 33135
 33136 33137 33138 33139 33140 33141 33142 33143 33144 33145 33146 33147 33148
 33149 33150 33151 33152 33153 33154 33155 33156 33157 33158 33159 33160 33161
 33162 33163 33164 33165 33166 33167 33168 33169 33170 33171 33172 33173 33174
 33175 33176 33177 33178 33179 33180 33181 33182 33183 33184 33185 33186 33187
 33188 33189 33190 33191 33192 33193 33194 33195 33196 33197 33198 33199 33200
 33201 33202 33203 33204 33205 33206 33207 33208 33209 33210 33211 33212 33213
 33214 33215 33216 33217 33218 33219 33220 33221 33222 33223 33224 33225 33226
 33227 33228 33229 33230 33231 33232 33233 33234 33235 33236 33237 33238 33239
 33240 33241 33242 33243 33244 33245 33246 33247 33248 33249 33250 33251 33252
 33253 33254 33255 33256 33257 33258 33259 33260 33261 33262 33263 33264 33265
 33266 33267 33268 33269 33270 33271 33272 33273 33274 33275 33276 33277 33278
 33279 33280 33281 33282 33283 33284 33285 33286 33287 33288 33289 33290 33291
 33292 33293 33294 33295 33296 33297 33298 33299 33300 33301 33302 33303 33304
 33305 33306 33307 33308 33309 33310 33311 33312 33313 33314 33315 33316 33317
 33318 33319 33320 33321 33322 33323 33324 33325 33326 33327 33328 33329 33330
 33331 33332 33333 33334 33335 33336 33337 33338 33339 33340 33341 33342 33343
 33344 33345 33346 33347 33348 33349 33350 33351 33352 33353 33354 33355 33356
 33357 33358 33359 33360 33361 33362 33363 33364 33365 33366 33367 33368 33369
 33370 33371 33372 33373 33374 33375 33376 33377 33378 33379 33380 33381 33382
 33383 33384 33385 33386 33387 33388 33389 33390 33391 33392 33393 33394 33395
 33396 33397 33398 33399 33400 33401 33402 33403 33404 33405 33406 33407 33408
 33409 33410 33411 33412 33413 33414 33415 33416 33417 33418 33419 33420 33421
 33422 33423 33424 33425 33426 33427 33428 33429 33430 33431 33432 33433 33434
 33435 33436 33437 33438 33439 33440 33441 33442 33443 33444 33445 33446 33447
 33448 33449 33450 33451 33452 33453 33454 33455 33456 33457 33458 33459 33460
 33461 33462 33463 33464 33465 33466 33467 33468 33469 33470 33471 33472 33473
 33474 33475 33476 33477 33478 33479 33480 33481 33482 33483 33484 33485 33486
 33487 33488 33489 33490 33491 33492 33493 33494 33495 33496 33497 33498 33499
 33500 33501 33502 33503 33504 33505 33506 33507 33508 33509 33510 33511 33512
 33513 33514 33515 33516 33517 33518 33519 33520 33521 33522 33523 33524 33525
 33526 33527 33528 33529 33530 33531 33532 33533 33534 33535 33536 33537 33538
 33539 33540 33541 33542 33543 33544 33545 33546 33547 33548 33549 33550 33551
 33552 33553 33554 33555 33556 33557 33558 33559 33560 33561 33562 33563 33564
 33565 33566 33567 33568 33569 33570 33571 33572 33573 33574 33575 33576 33577
 33578 33579 33580 33581 33582 33583 33584 33585 33586 33587 33588 33589 33590
 33591 33592 33593 33594 33595 33596 33597 33598 33599 33600 33601 33602 33603
 33604 33605 33606 33607 33608 33609 33610 33611 33612 33613 33614 33615 33616
 33617 33618 33619 33620 33621 33622 33623 33624 33625 33626 33627 33628 33629
 33630 33631 33632 33633 33634 33635 33636 33637 33638 33639 33640 33641 33642
 33643 33644 33645 33646 33647 33648 33649 33650 33651 33652 33653 33654 33655
 33656 33657 33658 33659 33660 33661 33662 33663 33664 33665 33666 33667 33668
 33669 33670 33671 33672 33673 33674 33675 33676 33677 33678 33679 33680 33681
 33682 33683 33684 33685 33686 33687 33688 33689 33690 33691 33692 33693 33694
 33695 33696 33697 33698 33699 33700 33701 33702 33703 33704 33705 33706 33707
 33708 33709 33710 33711 33712 33713 33714 33715 33716 33717 33718 33719 33720
 33721 33722 33723 33724 33725 33726 33727 33728 33729 33730 33731 33732 33733
 33734 33735 33736 33737 33738 33739 33740 33741 33742 33743 33744 33745 33746
 33747 33748 33749 33750 33751 33752 33753 33754 33755 33756 33757 33758 33759
 33760 33761 33762 33763 33764 33765 33766 33767 33768 33769 33770 33771 33772
 33773 33774 33775 33776 33777 33778 33779 33780 33781 33782 33783 33784 33785
 33786 33787 33788 33789 33790 33791 33792 33793 33794 33795 33796 33797 33798
 33799 33800 33801 33802 33803 33804 33805 33806 33807 33808 33809 33810 33811
 33812 33813 33814 33815 33816 33817 33818 33819 33820 33821 33822 33823 33824
 33825 33826 33827 33828 33829 33830 33831 33832 33833 33834 33835 33836 33837
 33838 33839 33840 33841 33842 33843 33844 33845 33846 33847 33848 33849 33850
 33851 33852 33853 33854 33855 33856 33857 33858 33859 33860 33861 33862 33863
 33864 33865 33866 33867 33868 33869 33870 33871 33872 33873 33874 33875 33876
 33877 33878 33879 33880 33881 33882 33883 33884 33885 33886 33887 33888 33889
 33890 33891 33892 33893 33894 33895 33896 33897 33898 33899 33900 33901 33902
 33903 33904 33905 33906 33907 33908 33909 33910 33911 33912 33913 33914 33915
 33916 33917 33918 33919 33920 33921 33922 33923 33924 33925 33926 33927 33928
 33929 33930 33931 33932 33933 33934 33935 33936 33937 33938 33939 33940 33941
 33942 33943 33944 33945 33946 33947 33948 33949 33950 33951 33952 33953 33954
 33955 33956 33957 33958 33959 33960 33961 33962 33963 33964 33965 33966 33967
 33968 33969 33970 33971 33972 33973 33974 33975 33976 33977 33978 33979 33980
 33981 33982 33983 33984 33985 33986 33987 33988 33989 33990 33991 33992 33993
 33994 33995 33996 33997 33998 33999 34000 34001 34002 34003 34004 34005 34006
 34007 34008 34009 34010 34011 34012 34013 34014 34015 34016 34017 34018 34019
 34020 34021 34022 34023 34024 34025 34026 34027 34028 34029 34030 34031 34032
 34033 34034 34035 34036 34037 34038 34039 34040 34041 34042 34043 34044 34045
 34046 34047 34048 34049 34050 34051 34052 34053 34054 34055 34056 34057 34058
 34059 34060 34061 34062 34063 34064 34065 34066 34067 34068 34069 34070 34071
 34072 34073 34074 34075 34076 34077 34078 34079 34080 34081 34082 34083 34084
 34085 34086 34087 34088 34089 34090 34091 34092 34093 34094 34095 34096 34097
 34098 34099 34100 34101 34102 34103 34104 34105 34106 34107 34108 34109 34110
 34111 34112 34113 34114 34115 34116 34117 34118 34119 34120 34121 34122 34123
 34124 34125 34126 34127 34128 34129 34130 34131 34132 34133 34134 34135 34136
 34137 34138 34139 34140 34141 34142 34143 34144 34145 34146 34147 34148 34149
 34150 34151 34152 34153 34154 34155 34156 34157 34158 34159 34160 34161 34162
 34163 34164 34165 34166 34167 34168 34169 34170 34171 34172 34173 34174 34175
 34176 34177 34178 34179 34180 34181 34182 34183 34184 34185 34186 34187 34188
 34189 34190 34191 34192 34193 34194 34195 34196 34197 34198 34199 34200 34201
 34202 34203 34204 34205 34206 34207 34208 34209 34210 34211 34212 34213 34214
 34215 34216 34217 34218 34219 34220 34221 34222 34223 34224 34225 34226 34227
 34228 34229 34230 34231 34232 34233 34234 34235 34236 34237 34238 34239 34240
 34241 34242 34243 34244 34245 34246 34247 34248 34249 34250 34251 34252 34253
 34254 34255 34256 34257 34258 34259 34260 34261 34262 34263 34264 34265 34266
 34267 34268 34269 34270 34271 34272 34273 34274 34275 34276 34277 34278 34279
 34280 34281 34282 34283 34284 34285 34286 34287 34288 34289 34290 34291 34292
 34293 34294 34295 34296 34297 34298 34299 34300 34301 34302 34303 34304 34305
 34306 34307 34308 34309 34310 34311 34312 34313 34314 34315 34316 34317 34318
 34319 34320 34321 34322 34323 34324 34325 34326 34327 34328 34329 34330 34331
 34332 34333 34334 34335 34336 34337 34338 34339 34340 34341 34342 34343 34344
 34345 34346 34347 34348 34349 34350 34351 34352 34353 34354 34355 34356 34357
 34358 34359 34360 34361 34362 34363 34364 34365 34366 34367 34368 34369 34370
 34371 34372 34373 34374 34375 34376 34377 34378 34379 34380 34381 34382 34383
 34384 34385 34386 34387 34388 34389 34390 34391 34392 34393 34394 34395 34396
 34397 34398 34399 34400 34401 34402 34403 34404 34405 34406 34407 34408 34409
 34410 34411 34412 34413 34414 34415 34416 34417 34418 34419 34420 34421 34422
 34423 34424 34425 34426 34427 34428 34429 34430 34431 34432 34433 34434 34435
 34436 34437 34438 34439 34440 34441 34442 34443 34444 34445 34446 34447 34448
 34449 34450 34451 34452 34453 34454 34455 34456 34457 34458 34459 34460 34461
 34462 34463 34464 34465 34466 34467 34468 34469 34470 34471 34472 34485 34487
 34488 34490 34491 34492 34493 34511 34512 34513 34514 34543 34545 34546 34547
 34558 34562 34563 34564 34565 34566 34567 34568 34569 34619 34620 34622 34659
 34660 34661 34662 34663 34664 34665 34666 34667 34668 34669 34670 34671 34672
 34673 34674 34675 34676 34677 34678 34679 34680 34681 34682 34683 34684 34685
 34686 34687 34688 34689 34690 34691 34692 34693 34694 34695 34696 34697 34698
 34699 34700 34701 34702 34703 34704 34705 34706 34707 34708 34709 34710 34711
 34712 34713 34714 34715 34716 34717 34718 34719 34720 34721 34722 34724 34736
 34739 34740 34741 34743 34744 34745 34746 34747 34748 34749 34750 34751 34752
 34753 34754 34755 34756 34757 34758 34759 34760 34761 34762 34763 34764 34765
 34766 34767 34768 34769 34770 34771 34772 34773 34774 34775 34776 34777 34778
 34779 34780 34781 34782 34783 34784 34785 34786 34787 34788 34789 34790 34791
 34792 34793 34794 34795 34796 34797 34798 34799 34800 34801 34802 34803 34804
 34805 34806 34807 34808 34809 34810 34811 34812 34813 34814 34815 34816 34817
 34818 34821 34829 34830 34831 34832 34833 34834 34835 34836 34837 34838 34839
 34840 34841 34842 34843 34844 34845 34846 34847 34848 34849 34850 34851 34852
 34853 34854 34855 34856 34857 34858 34859 34860 34861 34862 34863 34864 34865
 34866 34867 34868 34869 34870 34871 34872 34873 34874 34875 34876 34877 34878
 34879 34880 34881 34882 34883 34884 34885 34886 34887 34888 34889 34890 34891
 34892 34893 34894 34895 34896 34897 34898 34899 34900 34901 34902 34903 34904
 34905 34906 34907 34908 34909 34910 34911 34912 34913 34914 34915 34916 34917
 34918 34919 34920 34921 34922 34923 34924 34925 34926 34927 34928 34929 34930
 34931 34932 34933 34934 34935 34936 34937 34938 34939 34940 34941 34942 34943
 34944 34945 34946 34947 34948 34949 34950 34951 34952 34953 34954 34955 34956
 34957 34958 34959 34960 34961 34962 34963 34964 34965 34966 34967 34968 34969
 34970 34972 34974 34975 34976 34977 34978 34979 34980 34981 34982 34983 34984
 34985 34986 34987 34988 34989 34990 34991 34992 34993 34994 34995 34996 34997
 34998 34999 35000 35001 35002 35003 35004 35005 35006 35007 35008 35009 35010
 35011 35012 35013 35014 35015 35016 35017 35018 35019 35020 35021 35022 35023
 35024 35025 35026 35027 35028 35029 35030 35031 35032 35033 35034 35035 35036
 35037 35038 35039 35040 35041 35042 35043 35044 35045 35046 35047 35048 35049
 35050 35051 35052 35053 35054 35055 35056 35057 35058 35059 35060 35061 35062
 35063 35064 35065 35066 35067 35068 35069 35070 35071 35072 35073 35074 35075
 35076 35077 35078 35079 35080 35081 35082 35083 35084 35085 35086 35087 35088
 35089 35090 35091 35092 35093 35094 35095 35096 35097 35098 35099 35100 35101
 35102 35103 35104 35105 35106 35107 35108 35109 35110 35111 35112 35113 35114
 35115 35116 35117 35118 35119 35120 35121 35122 35123 35124 35125 35126 35127
 35128 35129 35130 35131 35132 35133 35134 35135 35136 35137 35138 35139 35140
 35141 35142 35143 35144 35145 35146 35147 35148 35149 35150 35151 35152 35153
 35154 35155 35156 35157 35158 35159 35160 35161 35162 35163 35164 35165 35166
 35167 35168 35169 35170 35171 35172 35173 35174 35175 35176 35177 35178 35179
 35180 35181 35182 35183 35184 35185 35186 35187 35188 35189 35190 35191 35192
 35193 35194 35195 35196 35197 35198 35199 35200 35201 35202 35203 35204 35205
 35206 35207 35208 35209 35210 35211 35212 35213 35214 35215 35216 35217 35218
 35219 35220 35221 35222 35223 35224 35225 35226 35227 35228 35229 35230 35231
 35232 35233 35234 35235 35236 35237 35238 35239 35240 35241 35242 35243 35244
 35245 35246 35247 35248 35249 35250 35251 35252 35253 35254 35255 35256 35257
 35258 35259 35260 35261 35262 35263 35264 35265 35266 35267 35268 35269 35270
 35271 35272 35273 35274 35275 35276 35277 35278 35279 35280 35281 35282 35283
 35284 35285 35286 35287 35288 35289 35291 35292 35293 35294 35295 35296 35297
 35298 35299 35300 35301 35302 35303 35304 35305 35306 35307 35308 35309 35310
 35311 35312 35313 35314 35315 35316 35317 35318 35319 35320 35321 35322 35323
 35324 35325 35326 35327 35328 35329 35330 35331 35332 35333 35334 35335 35336
 35337 35338 35339 35340 35341 35342 35343 35344 35345 35346 35347 35348 35349
 35350 35351 35352 35353 35354 35355 35356 35357 35358 35359 35360 35361 35362
 35363 35364 35365 35366 35367 35368 35369 35370 35371 35372 35373 35374 35378
 35379 35380 35381 35382 35383 35384 35385 35386 35387 35388 35389 35390 35391
 35392 35393 35394 35395 35396 35397 35398 35399 35400 35401 35402 35403 35404
 35405 35406 35407 35408 35409 35410 35411 35412 35413 35414 35415 35416 35417
 35418 35419 35420 35421 35422 35423 35424 35425 35426 35427 35428 35429 35430
 35431 35432 35433 35434 35435 35436 35437 35438 35439 35440 35441 35442 35443
 35444 35445 35446 35447 35448 35449 35450 35451 35452 35453 35454 35455 35456
 35457 35458 35459 35460 35461 35462 35463 35464 35465 35466 35467 35468 35469
 35470 35471 35472 35473 35474 35475 35476 35477 35478 35479 35480 35481 35482
 35483 35484 35485 35486 35487 35488 35489 35490 35491 35492 35493 35494 35495
 35496 35497 35498 35499 35500 35501 35502 35503 35504 35505 35506 35507 35508
 35509 35510 35511 35512 35513 35514 35515 35516 35517 35518 35519 35520 35521
 35522 35523 35524 35525 35526 35527 35528 35529 35530 35531 35532 35533 35534
 35535 35536 35537 35538 35539 35540 35541 35542 35543 35544 35545 35546 35547
 35548 35549 35550 35551 35552 35553 35554 35555 35556 35557 35558 35559 35560
 35561 35562 35563 35564 35565 35566 35567 35568 35569 35570 35571 35572 35573
 35574 35575 35576 35577 35578 35579 35580 35581 35582 35583 35584 35585 35586
 35587 35588 35589 35590 35591 35592 35593 35594 35595 35596 35597 35598 35599
 35600 35601 35602 35603 35604 35605 35606 35607 35608 35609 35610 35611 35612
 35613 35614 35615 35616 35617 35618 35619 35620 35621 35622 35623 35624 35625
 35626 35627 35628 35629 35630 35631 35632 35633 35634 35635 35636 35637 35638
 35639 35640 35641 35642 35643 35644 35645 35646 35647 35648 35649 35650 35651
 35652 35653 35654 35655 35656 35657 35658 35659 35660 35661 35662 35663 35664
 35665 35666 35667 35668 35669 35670 35671 35672 35673 35674 35675 35676 35677
 35678 35679 35680 35681 35682 35683 35684 35685 35686 35687 35688 35689 35690
 35691 35692 35693 35694 35695 35696 35697 35698 35699 35700 35701 35702 35703
 35704 35705 35706 35707 35708 35709 35710 35711 35712 35713 35714 35715 35716
 35717 35718 35719 35720 35721 35722 35723 35724 35725 35726 35727 35728 35729
 35730 35731 35732 35733 35734 35735 35736 35737 35738 35739 35740 35741 35742
 35743 35744 35745 35746 35747 35748 35749 35750 35751 35752 35753 35754 35755
 35756 35757 35758 35759 35760 35761 35762 35763 35764 35765 35766 35767 35768
 35769 35770 35771 35772 35773 35774 35775 35776 35777 35778 35779 35780 35781
 35782 35783 35784 35785 35786 35787 35788 35789 35790 35791 35792 35793 35794
 35795 35796 35797 35798 35799 35800 35801 35802 35803 35804 35805 35806 35807
 35808 35809 35810 35811 35812 35813 35814 35815 35816 35817 35818 35819 35820
 35821 35822 35823 35824 35825 35826 35827 35828 35829 35830 35831 35832 35833
 35834 35835 35836 35837 35838 35839 35840 35841 35842 35843 35844 35845 35846
 35847 35848 35849 35850 35851 35852 35853 35854 35855 35856 35857 35858 35859
 35860 35861 35862 35863 35864 35865 35866 35867 35868 35869 35870 35871 35872
 35873 35874 35875 35876 35877 35878 35879 35880 35881 35882 35883 35884 35885
 35886 35887 35888 35889 35890 35891 35892 35893 35894 35895 35896 35897 35898
 35899 35900 35901 35902 35903 35904 35905 35906 35907 35908 35909 35910 35911
 35912 35913 35914 35915 35916 35917 35918 35919 35920 35921 35922 35923 35924
 35925 35926 35927 35928 35929 35930 35931 35932 35933 35934 35935 35936 35937
 35938 35939 35940 35941 35942 35943 35944 35945 35946 35947 35948 35949 35950
 35951 35952 35953 35954 35955 35956 35957 35958 35959 35960 35961 35962 35963
 35964 35965 35966 35967 35968 35969 35970 35971 35972 35973 35974 35975 35976
 35977 35978 35979 35980 35981 35982 35983 35984 35985 35986 35987 35988 35989
 35990 35991 35992 35993 35994 35995 35996 35997 35998 35999 36000 36001 36002
 36003 36004 36005 36006 36007 36008 36009 36010 36011 36012 36013 36014 36015
 36016 36017 36018 36019 36020 36021 36022 36023 36024 36025 36026 36027 36028
 36029 36030 36031 36032 36033 36034 36035 36036 36037 36038 36039 36040 36041
 36042 36043 36044 36045 36046 36047 36048 36049 36050 36051 36052 36053 36054
 36055 36056 36057 36058 36059 36060 36061 36062 36063 36064 36065 36066 36067
 36068 36069 36070 36071 36072 36073 36074 36075 36076 36077 36078 36079 36080
 36081 36082 36083 36084 36085 36086 36087 36088 36089 36090 36091 36092 36093
 36094 36095 36096 36097 36098 36099 36100 36101 36102 36103 36104 36105 36106
 36107 36108 36109 36110 36111 36112 36113 36114 36115 36116 36117 36118 36119
 36120 36121 36122 36123 36124 36125 36126 36127 36128 36129 36130 36131 36132
 36133 36134 36135 36136 36137 36138 36139 36140 36141 36142 36143 36144 36145
 36146 36147 36148 36149 36150 36151 36152 36153 36154 36155 36156 36157 36158
 36159 36160 36161 36162 36163 36164 36165 36166 36167 36168 36169 36170 36171
 36172 36173 36174 36175 36176 36177 36178 36179 36180 36181 36182 36183 36184
 36185 36186 36187 36188 36189 36190 36191 36192 36193 36194 36195 36196 36197
 36198 36199 36200 36201 36202 36203 36204 36205 36206 36207 36208 36209 36210
 36211 36212 36213 36214 36215 36216 36217 36218 36219 36220 36221 36222 36223
 36224 36225 36226 36227 36228 36229 36230 36231 36232 36233 36234 36235 36236
 36237 36238 36239 36240 36241 36242 36243 36244 36245 36246 36247 36248 36249
 36250 36251 36252 36253 36254 36255 36256 36257 36258 36259 36260 36261 36262
 36263 36264 36265 36266 36267 36268 36269 36270 36271 36272 36273 36274 36275
 36276 36277 36278 36279 36280 36281 36282 36283 36284 36285 36286 36287 36288
 36289 36290 36291 36292 36293 36294 36295 36296 36297 36298 36299 36300 36301
 36302 36303 36304 36305 36306 36307 36308 36309 36310 36311 36312 36313 36314
 36315 36316 36317 36318 36319 36320 36321 36322 36323 36324 36325 36326 36327
 36328 36329 36330 36331 36332 36333 36334 36336 36338 36339 36340 36341 36342
 36343 36344 36345 36346 36347 36348 36349 36350 36351 36352 36353 36354 36355
 36356 36357 36358 36359 36360 36361 36362 36363 36364 36365 36366 36367 36368
 36369 36370 36371 36372 36373 36374 36375 36376 36377 36378 36379 36380 36381
 36382 36383 36384 36385 36386 36387 36388 36389 36390 36391 36392 36393 36394
 36395 36396 36397 36398 36399 36400 36401 36402 36403 36404 36405 36406 36407
 36408 36409 36410 36411 36412 36413 36414 36415 36416 36417 36418 36419 36420
 36421 36422 36423 36424 36425 36426 36427 36428 36429 36430 36431 36432 36433
 36434 36435 36436 36437 36438 36439 36440 36441 36442 36443 36444 36445 36446
 36447 36448 36449 36450 36451 36452 36453 36454 36455 36456 36457 36458 36459
 36460 36461 36462 36463 36464 36465 36466 36467 36468 36469 36470 36471 36472
 36473 36474 36475 36476 36477 36478 36479 36480 36481 36482 36483 36484 36485
 36486 36487 36488 36489 36490 36491 36492 36493 36494 36495 36496 36497 36498
 36499 36500 36501 36502 36503 36504 36505 36506 36507 36508 36509 36510 36511
 36512 36513 36514 36515 36516 36517 36518 36519 36520 36521 36522 36523 36524
 36525 36526 36527 36528 36529 36530 36531 36532 36533 36534 36535 36536 36537
 36538 36539 36540 36541 36542 36543 36544 36545 36546 36547 36548 36549 36550
 36551 36552 36553 36554 36555 36556 36557 36558 36559 36560 36561 36562 36563
 36564 36565 36566 36567 36568 36569 36570 36571 36572 36573 36574 36575 36576
 36577 36614 36615 36616 36617 36618 36619 36620 36621 36622 36623 36624 36625
 36626 36627 36628 36629 36630 36631 36632 36633 36634 36635 36678 36679 36680
 36681 36682 36683 36684 36685 36686 36687 36688 36689 36690 36691 36692 36693
 36694 36695 36696 36697 36698 36699 36700 36701 36702 36703 36704 36705 36706
 36707 36708 36709 36710 36711 36712 36713 36714 36715 36716 36717 36718 36719
 36741 36742 36743 36744 36749 36750 36751 36752 36753 36754 36755 36756 36757
 36758 36759 36760 36761 36762 36763 36764 36765 36766 36767 36768 36769 36770
 36771 36772 36773 36774 36775 36776 36777 36778 36779 36780 36781 36782 36783
 36784 36785 36786 36787 36788 36789 36790 36791 36792 36793 36794 36795 36796
 36797 36798 36799 36800 36801 36802 36803 36804 36805 36806 36807 36808 36809
 36810 36811 36812 36813 36814 36815 36816 36817 36818 36819 36820 36821 36822
 36823 36824 36825 36826 36827 36828 36829 36830 36831 36832 36833 36834 36835
 36836 36837 36838 36839 36840 36841 36842 36843 36844 36845 36846 36847 36848
 36849 36850 36851 36852 36853 36854 36855 36856 36857 36858 36859 36860 36861
 36862 36863 36864 36865 36866 36867 36868 36869 36870 36871 36872 36873 36874
 36875 36876 36877 36878 36879 36880 36881 36882 36883 36884 36885 36886 36887
 36888 36889 36890 36891 36892 36893 36894 36895 36896 36897 36898 36899 36900
 36901 36902 36903 36904 36905 36906 36907 36908 36909 36910 36911 36912 36913
 36914 36915 36916 36917 36918 36919 36920 36921 36922 36923 36924 36925 36926
 36927 36928 36929 36930 36931 36932 36933 36934 36935 36936 36937 36938 36939
 36940 36941 36942 36943 36944 36945 36946 36947 36948 36949 36950 36951 36952
 36953 36954 36955 36956 36957 36958 36959 36960 36961 36962 36963 36964 36965
 36966 36967 36968 36969 36970 36971 36972 36973 36974 36975 36976 36977 36978
 36979 36980 36981 36982 36983 36984 36985 36986 36987 36988 36989 36990 36991
 36992 36993 36994 36995 36996 36997 36998 36999 37000 37001 37002 37003 37004
 37005 37006 37007 37008 37009 37010 37011 37012 37013 37014 37015 37016 37017
 37018 37019 37020 37021 37022 37023 37024 37025 37026 37027 37028 37029 37030
 37031 37032 37033 37034 37035 37036 37037 37038 37039 37040 37041 37042 37043
 37044 37045 37046 37047 37048 37049 37050 37051 37052 37053 37054 37055 37056
 37057 37058 37059 37060 37061 37062 37063 37064 37065 37066 37067 37068 37069
 37070 37071 37072 37073 37074 37075 37076 37077 37078 37079 37080 37081 37082
 37083 37084 37085 37086 37087 37088 37089 37090 37091 37092 37093 37094 37095
 37096 37097 37098 37099 37100 37101 37102 37103 37104 37105 37106 37107 37108
 37109 37110 37111 37112 37113 37114 37115 37116 37117 37118 37119 37120 37121
 37122 37123 37124 37125 37126 37127 37128 37129 37130 37131 37132 37133 37134
 37135 37136 37137 37138 37139 37140 37141 37142 37143 37144 37145 37146 37147
 37148 37149 37150 37151 37152 37153 37154 37155 37156 37157 37158 37159 37160
 37161 37162 37163 37164 37165 37166 37167 37168 37169 37170 37171 37172 37173
 37174 37175 37176 37177 37178 37179 37180 37181 37182 37183 37184 37185 37186
 37187 37188 37189 37190 37191 37192 37193 37194 37195 37196 37197 37198 37199
 37200 37201 37202 37203 37204 37205 37206 37207 37208 37209 37210 37211 37212
 37213 37214 37215 37216 37217 37218 37219 37220 37221 37222 37223 37224 37225
 37226 37227 37228 37229 37230 37231 37232 37233 37234 37235 37236 37237 37238
 37239 37240 37241 37242 37243 37244 37245 37246 37247 37248 37249 37250 37251
 37252 37253 37254 37255 37256 37257 37258 37259 37260 37261 37262 37263 37264
 37265 37266 37267 37268 37269 37270 37271 37272 37273 37274 37275 37276 37277
 37278 37279 37280 37281 37282 37283 37284 37285 37286 37287 37288 37289 37290
 37291 37292 37293 37294 37295 37296 37297 37298 37299 37300 37301 37302 37303
 37304 37305 37306 37307 37308 37309 37310 37311 37312 37313 37314 37315 37316
 37317 37318 37319 37320 37321 37322 37323 37324 37325 37326 37327 37328 37329
 37330 37331 37332 37333 37334 37335 37336 37337 37338 37339 37340 37341 37342
 37343 37344 37345 37346 37347 37348 37349 37350 37351 37352 37353 37354 37355
 37356 37357 37358 37359 37360 37361 37362 37363 37364 37365 37366 37367 37368
 37369 37370 37371 37372 37373 37374 37375 37376 37377 37378 37379 37380 37381
 37382 37383 37384 37385 37386 37387 37388 37389 37390 37391 37392 37393 37394
 37395 37396 37397 37398 37399 37400 37401 37402 37403 37404 37405 37406 37407
 37408 37409 37410 37411 37412 37413 37414 37415 37416 37417 37418 37419 37420
 37421 37422 37423 37424 37425 37426 37427 37428 37429 37430 37431 37432 37433
 37434 37435 37436 37437 37438 37439 37440 37441 37442 37443 37444 37445 37446
 37447 37448 37449 37450 37451 37452 37453 37454 37455 37456 37457 37458 37459
 37460 37461 37462 37463 37464 37465 37466 37467 37468 37469 37470 37471 37472
 37473 37474 37475 37476 37477 37478 37479 37480 37481 37482 37483 37484 37485
 37486 37487 37488 37489 37490 37491 37492 37493 37494 37495 37496 37497 37498
 37499 37500 37501 37502 37503 37504 37505 37506 37507 37508 37509 37510 37511
 37512 37513 37514 37515 37516 37517 37518 37519 37520 37521 37522 37523 37524
 37525 37526 37527 37528 37529 37530 37531 37532 37533 37534 37535 37536 37537
 37538 37539 37540 37541 37542 37543 37544 37545 37546 37547 37548 37549 37550
 37551 37552 37553 37554 37555 37556 37557 37558 37559 37560 37561 37562 37563
 37564 37565 37566 37567 37568 37569 37570 37571 37572 37573 37574 37575 37576
 37577 37578 37579 37580 37581 37582 37583 37584 37585 37586 37587 37588 37589
 37590 37591 37592 37593 37594 37595 37596 37597 37598 37599 37600 37601 37602
 37603 37604 37605 37606 37607 37608 37609 37610 37611 37612 37613 37614 37615
 37616 37617 37618 37619 37620 37621 37622 37623 37624 37625 37626 37627 37628
 37629 37630 37631 37632 37633 37634 37635 37636 37637 37638 37639 37640 37641
 37642 37643 37644 37645 37646 37647 37648 37649 37650 37651 37652 37653 37654
 37655 37656 37657 37658 37659 37660 37661 37662 37663 37664 37665 37666 37667
 37668 37669 37670 37671 37672 37673 37674 37675 37676 37677 37678 37679 37680
 37681 37682 37683 37684 37685 37686 37687 37688 37689 37690 37691 37692 37693
 37694 37695 37696 37697 37698 37699 37700 37701 37702 37703 37704 37705 37706
 37707 37708 37709 37710 37711 37712 37713 37714 37715 37716 37717 37718 37719
 37720 37721 37722 37723 37724 37725 37726 37727 37728 37729 37730 37731 37732
 37733 37734 37735 37736 37737 37738 37739 37740 37741 37742 37743 37744 37745
 37746 37747 37748 37749 37750 37751 37752 37753 37754 37755 37756 37757 37758
 37759 37760 37761 37762 37763 37764 37765 37766 37767 37768 37769 37770 37771
 37772 37773 37774 37775 37776 37777 37778 37779 37780 37781 37782 37783 37784
 37785 37786 37787 37788 37789 37790 37791 37792 37793 37794 37795 37796 37797
 37798 37799 37800 37801 37802 37803 37804 37805 37806 37807 37808 37809 37810
 37811 37812 37813 37814 37815 37816 37817 37818 37819 37820 37821 37822 37823
 37824 37825 37826 37827 37828 37829 37830 37831 37832 37833 37834 37835 37836
 37837 37838 37839 37840 37841 37842 37843 37844 37845 37846 37847 37848 37849
 37850 37851 37852 37853 37854 37855 37856 37857 37858 37859 37860 37861 37862
 37863 37864 37865 37866 37867 37868 37869 37870 37871 37872 37873 37874 37875
 37876 37877 37878 37879 37880 37881 37882 37883 37884 37885 37886 37887 37888
 37889 37890 37891 37892 37893 37894 37895 37896 37897 37898 37899 37900 37901
 37902 37903 37904 37905 37906 37907 37908 37909 37910 37911 37912 37913 37914
 37915 37916 37917 37918 37919 37920 37921 37922 37923 37924 37925 37926 37927
 37928 37929 37930 37931 37932 37933 37934 37935 37936 37937 37938 37939 37940
 37941 37942 37943 37944 37945 37946 37947 37948 37949 37950 37951 37952 37953
 37954 37955 37956 37957 37958 37959 37960 37961 37962 37963 37964 37965 37966
 37967 37968 37969 37970 37971 37972 37973 37974 37975 37976 37977 37978 37979
 37980 37981 37982 37983 37984 37985 37986 37987 37988 37989 37990 37991 37992
 37993 37994 37995 37996 37997 37998 37999 38000 38001 38002 38003 38004 38005
 38006 38007 38008 38009 38010 38011 38012 38013 38014 38015 38016 38017 38018
 38019 38020 38021 38022 38023 38024 38025 38026 38027 38028 38029 38030 38031
 38032 38033 38034 38035 38036 38037 38038 38039 38040 38041 38042 38043 38044
 38045 38046 38047 38048 38049 38050 38051 38052 38053 38054 38055 38056 38057
 38058 38059 38060 38061 38062 38063 38064 38065 38066 38067 38068 38069 38070
 38071 38072 38073 38074 38075 38076 38077 38078 38079 38080 38081 38082 38083
 38084 38085 38086 38087 38088 38089 38090 38091 38092 38093 38094 38095 38096
 38097 38098 38099 38100 38101 38102 38103 38104 38105 38106 38107 38108 38109
 38110 38111 38112 38113 38114 38115 38116 38117 38118 38119 38120 38121 38122
 38123 38124 38125 38126 38127 38128 38129 38130 38131 38132 38133 38134 38135
 38136 38137 38138 38139 38140 38141 38142 38143 38144 38145 38146 38147 38148
 38149 38150 38151 38152 38153 38154 38155 38156 38157 38158 38159 38160 38161
 38162 38163 38164 38165 38166 38167 38168 38169 38170 38171 38172 38173 38174
 38175 38176 38177 38178 38179 38180 38181 38182 38183 38184 38185 38186 38187
 38188 38189 38190 38191 38192 38193 38194 38195 38196 38197 38198 38199 38200
 38201 38202 38203 38204 38205 38206 38207 38208 38209 38210 38211 38212 38213
 38214 38215 38216 38217 38218 38219 38220 38221 38222 38223 38224 38225 38226
 38227 38228 38229 38230 38231 38232 38233 38234 38235 38236 38237 38238 38239
 38240 38241 38242 38243 38244 38245 38246 38247 38248 38249 38250 38251 38252
 38253 38254 38255 38256 38257 38258 38259 38260 38261 38262 38263 38264 38265
 38266 38267 38268 38269 38270 38271 38272 38273 38274 38275 38276 38277 38278
 38279 38280 38281 38282 38283 38284 38285 38286 38287 38288 38289 38290 38291
 38292 38293 38294 38295 38296 38297 38298 38299 38300 38301 38302 38303 38304
 38305 38306 38307 38308 38309 38310 38311 38312 38313 38314 38315 38316 38317
 38318 38319 38320 38321 38322 38323 38324 38325 38326 38327 38328 38329 38330
 38331 38332 38333 38334 38335 38336 38337 38338 38339 38340 38341 38342 38343
 38344 38345 38346 38347 38348 38349 38350 38351 38352 38353 38354 38355 38356
 38357 38358 38359 38360 38361 38362 38363 38364 38365 38366 38367 38368 38369
 38370 38371 38372 38373 38374 38375 38376 38377 38378 38379 38380 38381 38382
 38383 38384 38385 38386 38387 38388 38389 38390 38391 38392 38393 38394 38395
 38396 38397 38399 38400 38401 38402 38403 38404 38405 38406 38407 38408 38409
 38410 38411 38412 38413 38414 38415 38416 38417 38418 38419 38420 38421 38422
 38423 38424 38425 38426 38427 38428 38429 38430 38431 38432 38433 38434 38435
 38436 38437 38438 38439 38440 38441 38442 38443 38444 38445 38446 38447 38448
 38449 38450 38451 38452 38453 38454 38455 38456 38457 38458 38459 38460 38461
 38462 38463 38464 38465 38466 38467 38468 38469 38470 38471 38472 38473 38474
 38475 38476 38477 38484 38485 38486 38487 38488 38489 38490 38491 38492 38493
 38494 38495 38496 38497 38498 38499 38500 38501 38502 38503 38504 38505 38506
 38507 38508 38509 38510 38511 38512 38513 38514 38515 38516 38517 38518 38519
 38520 38521 38522 38523 38524 38525 38526 38527 38528 38529 38530 38531 38532
 38533 38534 38535 38536 38537 38538 38539 38540 38541 38542 38543 38544 38545
 38546 38547 38548 38549 38550 38551 38552 38553 38554 38555 38556 38557 38558
 38559 38560 38561 38562 38563 38564 38565 38566 38567 38568 38569 38570 38571
 38572 38573 38574 38575 38576 38577 38578 38579 38580 38581 38582 38583 38584
 38585 38586 38587 38588 38589 38590 38591 38592 38593 38594 38595 38596 38597
 38598 38599 38600 38601 38602 38603 38604 38605 38606 38607 38608 38609 38610
 38611 38612 38613 38614 38615 38616 38617 38618 38619 38620 38621 38622 38623
 38624 38625 38626 38627 38628 38629 38630 38631 38632 38633 38634 38635 38636
 38637 38638 38639 38640 38641 38642 38643 38644 38645 38646 38647 38648 38649
 38650 38651 38652 38653 38654 38655 38656 38657 38658 38659 38660 38661 38662
 38663 38664 38665 38666 38667 38668 38669 38670 38671 38672 38673 38674 38675
 38676 38677 38678 38679 38680 38681 38682 38683 38684 38685 38686 38687 38688
 38689 38690 38691 38692 38693 38694 38695 38696 38697 38698 38699 38700 38701
 38702 38703 38704 38705 38706 38707 38708 38709 38710 38711 38712 38713 38714
 38715 38716 38717 38718 38719 38720 38721 38722 38723 38724 38725 38726 38727
 38728 38729 38730 38731 38732 38733 38734 38735 38736 38737 38738 38739 38740
 38741 38742 38743 38744 38745 38746 38747 38748 38749 38750 38751 38752 38753
 38754 38755 38756 38757 38758 38759 38760 38761 38762 38763 38764 38765 38766
 38767 38768 38769 38770 38771 38772 38773 38774 38775 38776 38777 38778 38779
 38780 38781 38782 38783 38784 38785 38786 38787 38788 38789 38790 38791 38792
 38793 38794 38795 38796 38797 38798 38799 38800 38801 38802 38803 38804 38805
 38806 38807 38808 38809 38810 38811 38812 38813 38814 38815 38816 38817 38818
 38819 38820 38821 38822 38823 38824 38825 38826 38827 38828 38829 38830 38831
 38832 38833 38834 38835 38836 38837 38838 38839 38840 38841 38842 38843 38844
 38845 38846 38847 38848 38849 38850 38851 38852 38853 38854 38855 38856 38857
 38858 38859 38860 38861 38862 38863 38864 38865 38866 38867 38868 38869 38870
 38871 38872 38873 38874 38875 38876 38877 38878 38879 38880 38881 38882 38883
 38884 38885 38886 38887 38888 38889 38890 38891 38892 38893 38894 38895 38896
 38897 38898 38899 38900 38901 38902 38903 38904 38905 38906 38907 38908 38909
 38910 38911 38912 38913 38914 38915 38916 38917 38918 38919 38920 38921 38922
 38923 38924 38925 38926 38927 38928 38929 38930 38931 38932 38933 38934 38935
 38936 38937 38938 38939 38940 38941 38942 38943 38944 38945 38946 38947 38948
 38949 38950 38951 38952 38953 38954 38955 38956 38957 38958 38959 38960 38961
 38962 38963 38964 38965 38966 38967 38968 38969 38970 38971 38972 38973 38974
 38975 38976 38977 38978 38979 38980 38981 38982 38983 38984 38985 38986 38987
 38988 38989 38990 38991 38992 38993 38994 38995 38996 38997 38998 38999 39000
 39001 39002 39003 39004 39005 39006 39007 39008 39009 39010 39011 39012 39013
 39014 39015 39016 39017 39018 39019 39020 39021 39022 39023 39024 39025 39026
 39027 39028 39029 39030 39031 39032 39033 39034 39035 39036 39037 39038 39039
 39040 39041 39042 39043 39044 39045 39046 39047 39048 39049 39050 39051 39052
 39053 39054 39055 39056 39057 39058 39059 39060 39061 39062 39063 39064 39065
 39066 39067 39068 39069 39070 39071 39072 39073 39074 39075 39076 39077 39078
 39079 39080 39081 39082 39083 39084 39085 39086 39087 39088 39089 39090 39091
 39092 39093 39094 39095 39096 39097 39098 39099 39100 39101 39102 39103 39104
 39105 39106 39107 39108 39109 39110 39111 39112 39113 39114 39115 39116 39117
 39118 39119 39120 39121 39122 39123 39124 39125 39126 39127 39128 39129 39130
 39131 39132 39133 39134 39135 39136 39137 39138 39139 39140 39141 39142 39143
 39144 39145 39146 39147 39148 39149 39150 39151 39152 39153 39154 39155 39156
 39157 39158 39159 39160 39161 39162 39163 39164 39165 39166 39167 39168 39169
 39170 39171 39172 39173 39174 39175 39176 39177 39178 39179 39180 39181 39182
 39183 39184 39185 39186 39187 39188 39189 39190 39191 39192 39193 39194 39195
 39196 39197 39198 39199 39200 39201 39202 39203 39204 39205 39206 39207 39208
 39209 39210 39211 39212 39213 39214 39215 39216 39217 39218 39219 39220 39221
 39222 39223 39224 39225 39226 39227 39228 39229 39230 39231 39232 39233 39234
 39235 39236 39237 39238 39239 39240 39241 39242 39243 39244 39245 39246 39247
 39248 39249 39250 39251 39252 39253 39254 39255 39256 39257 39258 39259 39260
 39261 39262 39263 39264 39265 39266 39267 39268 39269 39270 39271 39272 39273
 39274 39275 39276 39277 39278 39279 39280 39281 39282 39283 39284 39285 39286
 39287 39288 39289 39290 39291 39292 39293 39294 39295 39296 39297 39298 39299
 39300 39301 39302 39303 39304 39305 39306 39307 39308 39309 39310 39311 39312
 39313 39314 39315 39316 39317 39318 39319 39320 39321 39322 39323 39324 39325
 39326 39327 39328 39329 39330 39331 39332 39333 39334 39335 39336 39337 39338
 39339 39340 39341 39342 39343 39344 39345 39346 39347 39348 39349 39350 39351
 39352 39353 39354 39355 39356 39357 39358 39359 39360 39361 39362 39363 39364
 39365 39366 39367 39368 39369 39370 39371 39372 39373 39374 39375 39376 39377
 39378 39379 39380 39381 39382 39383 39384 39385 39386 39387 39388 39389 39390
 39391 39392 39393 39394 39395 39396 39397 39398 39399 39400 39401 39402 39403
 39404 39405 39406 39407 39408 39409 39410 39411 39412 39413 39414 39415 39416
 39417 39418 39419 39420 39421 39422 39423 39424 39425 39426 39427 39428 39429
 39430 39431 39432 39433 39434 39435 39436 39437 39438 39439 39440 39441 39442
 39443 39444 39445 39446 39447 39448 39449 39450 39451 39452 39453 39454 39455
 39456 39457 39458 39459 39460 39461 39462 39463 39464 39465 39466 39467 39468
 39469 39470 39471 39472 39473 39474 39475 39476 39477 39478 39479 39480 39481
 39482 39483 39484 39485 39486 39487 39488 39489 39490 39491 39492 39493 39494
 39495 39496 39497 39498 39499 39500 39501 39502 39503 39504 39505 39506 39507
 39508 39509 39510 39511 39512 39513 39514 39515 39516 39517 39518 39519 39520
 39521 39522 39523 39524 39525 39526 39527 39528 39529 39530 39531 39532 39533
 39534 39535 39536 39537 39538 39539 39540 39541 39542 39543 39544 39545 39546
 39547 39548 39549 39550 39551 39552 39553 39554 39555 39556 39557 39558 39559
 39560 39561 39562 39563 39564 39565 39566 39567 39568 39569 39570 39571 39572
 39573 39574 39575 39576 39577 39578 39579 39580 39581 39582 39583 39584 39585
 39586 39587 39588 39589 39590 39591 39592 39593 39594 39595 39596 39597 39598
 39599 39600 39601 39602 39607 39608 39609 39610 39611 39612 39613 39614 39615
 39616 39617 39618 39619 39620 39621 39622 39623 39624 39625 39626 39627 39628
 39629 39630 39631 39632 39633 39634 39635 39636 39637 39638 39639 39640 39641
 39642 39643 39644 39645 39646 39647 39648 39649 39650 39651 39652 39653 39654
 39655 39656 39657 39658 39659 39660 39661 39662 39663 39664 39665 39666 39669
 39670 39671 39672 39673 39674 39675 39676 39677 39678 39679 39680 39681 39682
 39683 39684 39685 39686 39687 39688 39689 39690 39691 39692 39693 39694 39695
 39696 39697 39698 39699 39700 39701 39703 39704 39705 39706 39707 39708 39709
 39710 39711 39712 39713 39714 39715 39716 39717 39718 39719 39720 39721 39722
 39723 39724 39725 39726 39727 39728 39729 39730 39731 39732 39734 39737 39754
 39755 39756 39775 39776 39778 39779 39780 39781 39782 39783 39784 39785 39790
 39791 39798 39799 39801 39802 39803 39804 39805 39806 39807 39808 39809 39810
 39811 39812 39813 39814 39815 39816 39817 39819 39826 39829 39830 39831 39832
 39833 39834 39835 39836 39837 39838 39845 39847 39848 39849 39854 39855 39896
 39897 39898 39899 39900 39901 39902 39903 39904 39905 39906 39907 39908 39909
 39910 39911 39912 39913 39914 39915 39916 39917 39918 39919 39920 39921 39922
 39923 39924 39925 39926 39927 39928 39929 39930 39931 39932 39933 39934 39935
 39936 39937 39938 39939 39940 39941 39942 39943 39944 39945 39946 39947 39948
 39949 39950 39951 39952 39953 39954 39955 39956 39957 39958 39959 39960 39961
 39962 39963 39964 39965 39966 39967 39968 39969 39970 39971 39972 39973 39974
 39975 39976 39977 39978 39979 39980 39981 39982 39983 39984 39985 39986 39987
 39988 39989 39990 39991 39992 39993 39994 39995 39996 40019 40020 40021 40022
 40023 40024 40025 40026 40027 40028 40029 40030 40031 40032 40033 40034 40035
 40036 40037 40038 40039 40040 40041 40042 40043 40044 40045 40046 40047 40048
 40049 40050 40051 40052 40053 40054 40055 40056 40057 40058 40059 40060 40061
 40098 40099 40100 40101 40102 40103 40104 40105 40106 40107 40108 40109 40110
 40111 40112 40113 40114 40115 40116 40117 40118 40119 40120 40121 40122 40123
 40124 40125 40126 40127 40128 40129 40130 40131 40132 40133 40134 40135 40136
 40137 40138 40139 40140 40141 40142 40143 40144 40145 40146 40147 40148 40149
 40150 40151 40152 40153 40154 40155 40156 40157 40158 40159 40160 40161 40162
 40163 40164 40165 40166 40167 40168 40169 40170 40171 40172 40173 40174 40175
 40176 40177 40178 40179 40180 40181 40182 40183 40184 40185 40186 40187 40188
 40189 40190 40191 40198 40200 40201 40202 40203 40204 40206 40207 40208 40209
 40210 40211 40212 40213 40240 40241 40242 40243 40244 40245 40246 40247 40248
 40249 40250 40251 40252 40253 40254 40255 40256 40257 40258 40259 40260 40261
 40262 40263 40264 40265 40266 40267 40268 40269 40270 40271 40272 40273 40274
 40275 40276 40307 40308 40309 40310 40313 40314 40315 40316 40317 40318 40319
 40320 40321 40322 40323 40324 40325 40326 40327 40328 40329 40330 40331 40332
 40333 40334 40335 40336 40337 40338 40339 40340 40341 40342 40343 40344 40345
 40346 40347 40348 40349 40350 40351 40352 40353 40354 40355 40398 40399 40400
 40401 40402 40403 40404 40405 40406 40407 40408 40409 40410 40411 40412 40413
 40414 40415 40416 40417 40418 40419 40420 40421 40422 40423 40424 40425 40426
 40427 40428 40429 40430 40431 40432 40433 40434 40435 40436 40437 40438 40439
 40461 40462 40463 40464 40465 40466 40467 40468 40469 40470 40471 40472 40473
 40474 40475 40476 40477 40478 40479 40480 40481 40483 40484 40506 40507 40525
 40526 40527 40528 40529 40530 40531 40532 40533 40534 40535 40536 40537 40538
 40539 40540 40541 40542 40543 40544 40545 40546 40547 40548 40549 40550 40551
 40552 40553 40555 40567 40568 40569 40570 40571 40572 40573 40574 40575 40576
 40577 40578 40579 40580 40581 40582 40583 40584 40585 40586 40587 40588 40589
 40591 40592 40593 40594 40595 40596 40597 40598 40599 40600 40601 40602 40603
 40604 40605 40606 40607 40608 40612 40613 40614 40615 40616 40617 40618 40619
 40620 40621 40622 40623 40624 40625 40626 40627 40628 40629 40630 40639 40640
 40641 40642 40643 40644 40647 40649 40652 40653 40654 40655 40656 40657 40658
 40659 40660 40661 40662 40663 40664 40665 40666 40667 40668 40669 40670 40671
 40672 40692 40693 40716 40717 40718 40719 40720 40721 40722 40723 40724 40725
 40726 40727 40728 40729 40730 40731 40732 40733 40734 40735 40736 40780 40781
 40782 40783 40784 40785 40786 40787 40788 40789 40790 40791 40792 40793 40794
 40795 40796 40797 40798 40799 40800 40801 40823 40824 40825 40826 40827 40828
 40829 40830 40831 40832 40833 40834 40835 40836 40837 40838 40839 40840 40841
 40842 40843 40844 40845 40846 40847 40848 40849 40850 40851 40852 40853 40854
 40855 40856 40857 40858 40859 40860 40861 40862 40863 40864 40865 40866 40867
 40868 40869 40870 40871 40872 40873 40874 40875 40876 40877 40878 40879 40880
 40881 40882 40883 40884 40885 40886 40887 40888 40889 40890 40891 40892 40893
 40894 40895 40896 40897 40898 40899 40900 40901 40902 40903 40904 40905 40906
 40907 40929 40930 40931 40932 40933 40934 40935 40936 40937 40938 40939 40940
 40941 40942 40943 40944 40945 40946 40947 40948 40949 40950 40988 40990 40991
 40993 40994 40995 40996 40997 40998 40999 41000 41001 41002 41003 41004 41005
 41006 41007 41008 41009 41010 41011 41012 41013 41014 41015 41038 41039 41040
 41041 41042 41043 41044 41045 41046 41047 41048 41049 41050 41051 41052 41053
 41054 41055 41056 41057 41058 41059 41060 41061 41062 41063 41064 41065 41066
 41067 41068 41069 41070 41071 41072 41073 41074 41075 41076 41077 41078 41079
 41080 41081 41082 41083 41084 41085 41086 41087 41088 41089 41090 41091 41092
 41093 41094 41095 41096 41097 41098 41099 41100 41101 41102 41103 41104 41105
 41106 41107 41108 41109 41110 41111 41112 41113 41114 41115 41116 41117 41118
 41119 41120 41121 41122 41123 41124 41125 41126 41127 41128 41129 41130 41131
 41132 41133 41134 41135 41136 41137 41138 41139 41140 41141 41142 41143 41144
 41145 41146 41147 41148 41149 41150 41151 41152 41153 41154 41155 41156 41157
 41158 41159 41160 41161 41162 41163 41164 41165 41166 41167 41168 41169 41170
 41171 41172 41173 41174 41175 41176 41177 41178 41179 41180 41181 41182 41183
 41184 41185 41186 41187 41188 41189 41190 41191 41192 41193 41194 41195 41196
 41197 41198 41199 41200 41201 41202 41203 41204 41205 41206 41207 41208 41209
 41210 41211 41212 41213 41214 41215 41216 41217 41218 41219 41220 41221 41222
 41223 41224 41225 41226 41227 41228 41229 41230 41231 41232 41233 41234 41235
 41236 41237 41238 41239 41240 41241 41242 41243 41244 41245 41246 41247 41248
 41249 41250 41251 41252 41253 41254 41255 41256 41257 41258 41259 41260 41261
 41262 41263 41264 41265 41266 41267 41268 41269 41270 41271 41297 41298 41299
 41300 43024 43025 43026 43027 43028 43029 43030 43031 43032 43033 43034 43035
 43036 43037 43038 43039 43040 43042 43043 43045 43046 43047 43048 43049 43051
 43052 43063 43064 43066 43067 43068 43069 43070 43071 43072 43073 43084 43085
 43086 43087 43088 43089 43090 43091 43092 43093 43094 43095 43096 43097 43098
 43099 43100 43101 43102 43103 43104 43127 43128 43129 43130 43131 43132 43133
 43134 43142 43143 43148 43149 43150 43151 43152 43153 43154 43155 43156 43157
 43158 43159 43160 43161 43162 43163 43164 43165 43166 43167 43168 43169 43170
 43171 43172 43173 43174 43175 43176 43177 43178 43179 43180 43181 43182 43183
 43184 43185 43186 43187 43188 43189 43190 43234 43235 43236 43237 43238 43239
 43240 43241 43242 43243 43244 43245 43246 43247 43248 43250 43255 43256 43257
 43411 43412 43413 43414 43415 43416 43417 43418 43419 43420 43421 43422 43423
 43424 43479 43480 43482 43483 43484 43485 43486 43487 43488 43489 43577 43578
 43579 43580 43581 43582 43583 43584 43585 43586 43587 43588 43589 43590 43591
 43592 43593 43594 43595 43596 43597 43598 43599 43600 43601 43602 43603 43604
 43605 43606 43607 43608 43609 43610 43611 43612 43613 43614 43615 43616 43617
 43618 43619 43620 43621 43622 43623 43624 43625 43626 43627 43628 43629 43630
 43631 43632 43633 43634 43635 43636 43637 43638 43639 43640 43641 43642 43643
 43644 43645 43646 43647 43648 43649 43650 43651 43652 43653 43654 43655 43656
 43657 43658 43659 43660 43661 43662 43663 43664 43665 43666 43667 43668 43669
 43670 43671 43672 43673 43674 43675 43676 43677 43678 43679 43680 43681 43682
 43683 43684 43685 43686 43687 43688 43689 43690 43691 43692 43693 43694 43695
 43696 43697 43698 43699 43700 43701 43702 43703 43704 43705 43706 43707 43708
 43709 43710 43711 43712 43713 43714 43715 43716 43717 43718 43719 43720 43721
 43722 43723 43724 43725 43726 43727 43728 43729 43730 43731 43732 43733 43734
 43735 43736 43737 43738 43739 43740 43741 43742 43743 43744 43745 43746 43747
 43748 43749 43750 43751 43752 43753 43754 43755 43756 43757 43758 43759 43760
 43761 43762 43763 43764 43765 43766 43767 43768 43769 43770 43771 43772 43773
 43774 43775 43776 43777 43778 43779 43780 43781 43782 43783 43784 43785 43786
 43787 43788 43789 43790 43791 43792 43793 43794 43795 43796 43797 43798 43799
 43800 43801 43802 43803 43804 43805 43806 43807 43808 43809 43810 43811 43812
 43813 43814 43815 43816 43817 43818 43819 43820 43821 43822 43823 43824 43825
 43826 43827 43828 43829 43830 43831 43832 43833 43834 43835 43836 43837 43838
 43839 43840 43841 43842 43843 43844 43845 43846 43847 43848 43849 43850 43851
 43852 43853 43854 43855 43856 43857 43858 43859 43860 43861 43862 43863 43864
 43865 43866 43867 43868 43869 43870 43871 43872 43873 43874 43875 43876 43877
 43878 43879 43880 43881 43882 43883 43884 43885 43886 43887 43888 43889 43890
 43891 43892 43893 43894 43895 43896 43897 43898 43899 43900 43901 43902 43903
 43904 43905 43906 43907 43908 43909 43910 43911 43912 43913 43914 43915 43916
 43917 43918 43919 43920 43921 43922 43923 43924 43925 43926 43927 43928 43929
 43930 43931 43932 43933 43934 43935 43936 43937 43938 43939 43940 43941 43942
 43943 43944 43945 43946 43947 43948 43949 43950 43951 43952 43953 43954 43955
 43956 43957 43958 43959 43960 43961 43962 43963 43964 43965 43966 43967 43968
 43969 43970 43971 43972 43973 43974 43975 43976 43977 43978 43979 43980 43981
 43982 43983 43984 43985 43986 43987 43988 43989 43990 43991 43992 43993 43994
 43995 43996 43997 43998 43999 44000 44001 44002 44003 44004 44005 44006 44007
 44008 44009 44010 44011 44012 44013 44014 44015 44016 44017 44018 44019 44020
 44021 44022 44023 44024 44025 44026 44027 44028 44029 44030 44031 44032 44033
 44034 44035 44036 44037 44038 44039 44040 44041 44042 44043 44044 44045 44046
 44047 44048 44049 44050 44051 44052 44053 44054 44055 44056 44057 44058 44059
 44060 44061 44062 44063 44064 44065 44066 44067 44068 44069 44070 44071 44072
 44073 44074 44075 44076 44077 44078 44079 44080 44081 44082 44083 44084 44085
 44086 44087 44088 44089 44090 44091 44092 44093 44094 44095 44096 44097 44098
 44099 44100 44101 44102 44103 44104 44105 44106 44107 44108 44109 44110 44111
 44112 44113 44114 44115 44116 44117 44118 44119 44120 44121 44122 44123 44124
 44125 44126 44127 44128 44129 44130 44131 44132 44133 44134 44135 44136 44137
 44138 44139 44140 44141 44142 44143 44144 44145 44146 44147 44148 44149 44150
 44151 44152 44153 44154 44155 44156 44157 44158 44159 44160 44161 44162 44163
 44164 44165 44166 44167 44168 44169 44170 44171 44172 44173 44174 44175 44176
 44177 44178 44179 44180 44181 44182 44183 44184 44185 44186 44187 44188 44189
 44190 44191 44192 44193 44194 44195 44196 44197 44198 44199 44200 44201 44202
 44203 44204 44205 44206 44207 44208 44209 44210 44211 44212 44213 44214 44215
 44216 44217 44218 44219 44220 44221 44222 44223 44224 44225 44226 44227 44228
 44229 44230 44231 44232 44233 44234 44235 44236 44237 44238 44239 44240 44241
 44242 44243 44244 44245 44246 44247 44248 44249 44250 44251 44252 44253 44254
 44255 44256 44257 44258 44259 44260 44261 44262 44263 44264 44265 44266 44267
 44268 44269 44270 44271 44272 44273 44274 44275 44276 44277 44278 44279 44280
 44281 44282 44283 44284 44285 44286 44287 44288 44289 44290 44291 44292 44293
 44294 44295 44296 44297 44298 44299 44300 44301 44302 44303 44304 44305 44306
 44307 44308 44309 44310 44311 44312 44313 44314 44315 44316 44317 44318 44319
 44320 44321 44322 44323 44324 44325 44326 44327 44328 44329 44330 44331 44332
 44333 44334 44335 44336 44337 44338 44339 44340 44341 44342 44343 44344 44345
 44346 44347 44348 44349 44350 44351 44352 44353 44354 44355 44356 44357 44358
 44359 44360 44361 44362 44363 44364 44365 44366 44367 44368 44369 44370 44371
 44372 44373 44374 44375 44376 44377 44378 44379 44380 44381 44382 44383 44384
 44385 44386 44387 44388 44389 44390 44391 44392 44393 44394 44395 44396 44397
 44398 44399 44400 44401 44402 44403 44404 44405 44406 44407 44408 44409 44410
 44411 44412 44413 44414 44415 44416 44417 44418 44419 44420 44421 44422 44423
 44424 44425 44426 44427 44428 44429 44430 44431 44432 44433 44434 44435 44436
 44437 44438 44439 44440 44441 44442 44443 44444 44445 44446 44447 44448 44449
 44450 44451 44452 44453 44454 44455 44456 44457 44458 44459 44460 44461 44462
 44463 44464 44465 44466 44467 44468 44469 44470 44471 44472 44473 44474 44475
 44476 44477 44478 44479 44480 44481 44482 44483 44484 44485 44486 44487 44488
 44489 44490 44491 44492 44493 44494 44495 44496 44497 44498 44499 44500 44501
 44502 44503 44504 44505 44506 44507 44508 44509 44510 44511 44512 44513 44514
 44515 44516 44517 44518 44519 44520 44521 44522 44523 44524 44525 44526 44527
 44528 44529 44530 44531 44532 44533 44534 44535 44536 44537 44538 44539 44540
 44541 44542 44543 44544 44545 44546 44547 44548 44549 44550 44551 44552 44553
 44554 44555 44556 44557 44558 44559 44560 44561 44562 44563 44564 44565 44566
 44567 44568 44569 44570 44571 44572 44573 44574 44575 44576 44577 44578 44579
 44580 44581 44582 44583 44584 44585 44586 44587 44588 44589 44590 44591 44592
 44593 44594 44595 44596 44597 44598 44599 44600 44601 44602 44603 44604 44605
 44606 44607 44608 44609 44610 44611 44612 44613 44614 44615 44616 44617 44618
 44619 44620 44621 44622 44623 44624 44625 44626 44627 44628 44629 44630 44631
 44632 44633 44634 44635 44636 44637 44638 44639 44640 44641 44642 44643 44644
 44645 44646 44647 44648 44649 44650 44651 44652 44653 44654 44655 44656 44657
 44658 44659 44660 44661 44662 44663 44664 44665 44666 44667 44668 44669 44670
 44671 44672 44673 44674 44675 44676 44677 44678 44679 44680 44681 44682 44683
 44684 44685 44686 44687 44688 44689 44690 44691 44692 44693 44694 44695 44696
 44697 44698 44699 44700 44701 44702 44703 44704 44705 44706 44707 44708 44709
 44710 44711 44712 44713 44714 44715 44716 44717 44718 44719 44720 44721 44722
 44723 44724 44725 44726 44727 44728 44729 44730 44731 44732 44733 44734 44735
 44736 44737 44738 44739 44740 44741 44742 44743 44744 44745 44746 44747 44748
 44749 44750 44751 44752 44753 44754 44755 44756 44757 44758 44759 44760 44761
 44762 44763 44764 44765 44766 44767 44768 44769 44770 44771 44772 44773 44774
 44775 44776 44777 44778 44779 44780 44781 44782 44783 44784 44785 44786 44787
 44788 44789 44790 44791 44792 44793 44794 44795 44796 44797 44798 44799 44800
 44801 44802 44803 44804 44805 44806 44807 44808 44809 44810 44811 44812 44813
 44814 44815 44816 44817 44818 44819 44820 44821 44822 44823 44824 44825 44826
 44827 44828 44829 44830 44831 44832 44833 44834 44835 44836 44837 44838 44839
 44840 44841 44842 44843 44844 44845 44846 44847 44848 44849 44850 44851 44852
 44853 44854 44855 44856 44857 44858 44859 44860 44861 44862 44863 44864 44865
 44866 44867 44868 44869 44870 44871 44872 44873 44874 44875 44876 44877 44878
 44879 44880 44881 44882 44883 44884 44885 44886 44887 44888 44889 44890 44891
 44892 44893 44894 44895 44896 44897 44898 44899 44900 44901 44902 44903 44904
 44905 44906 44907 44908 44909 44910 44911 44912 44913 44914 44915 44916 44917
 44918 44919 44920 44921 44922 44923 44924 44925 44926 44927 44928 44929 44930
 44931 44932 44933 44934 44935 44936 44937 44938 44939 44940 44941 44942 44943
 44944 44945 44946 44947 44948 44949 44950 44951 44952 44953 44954 44955 44956
 44957 44958 44959 44960 44961 44962 44963 44964 44965 44966 44967 44968 44969
 44970 44971 44972 44973 44974 44975 44976 44977 44978 44979 44980 44981 44982
 44983 44984 44985 44986 44987 44988 44989 44990 44991 44992 44993 44994 44995
 44996 44997 44998 44999 45000 45001 45002 45003 45004 45005 45006 45007 45008
 45009 45010 45011 45012 45013 45014 45015 45016 45017 45018 45019 45020 45021
 45022 45023 45024 45025 45026 45027 45028 45029 45030 45031 45032 45033 45034
 45035 45036 45037 45038 45039 45040 45041 45042 45043 45044 45045 45046 45047
 45048 45049 45050 45051 45052 45053 45054 45055 45056 45057 45058 45059 45060
 45061 45062 45063 45064 45065 45066 45067 45068 45069 45070 45071 45072 45073
 45074 45075 45076 45077 45078 45079 45080 45081 45082 45083 45084 45085 45086
 45087 45088 45089 45090 45091 45092 45093 45094 45095 45096 45097 45098 45099
 45100 45101 45102 45103 45104 45105 45106 45107 45108 45109 45110 45111 45112
 45113 45114 45115 45116 45117 45118 45119 45120 45121 45122 45123 45124 45125
 45126 45127 45128 45129 45130 45131 45132 45133 45134 45135 45136 45137 45138
 45139 45140 45141 45142 45143 45144 45145 45146 45147 45148 45149 45150 45151
 45152 45153 45154 45155 45156 45157 45158 45159 45160 45161 45162 45163 45164
 45165 45166 45167 45168 45169 45170 45171 45172 45173 45174 45175 45176 45177
 45178 45179 45180 45181 45182 45183 45184 45185 45186 45187 45188 45189 45190
 45191 45192 45193 45194 45195 45196 45197 45198 45199 45200 45201 45202 45203
 45204 45205 45206 45207 45208 45209 45210 45211 45212 45213 45214 45215 45216
 45217 45218 45219 45220 45221 45222 45223 45224 45225 45226 45227 45228 45229
 45230 45231 45232 45233 45234 45235 45236 45237 45238 45239 45240 45241 45242
 45243 45244 45245 45246 45247 45248 45249 45250 45251 45252 45253 45254 45255
 45256 45257 45258 45259 45260 45261 45262 45263 45264 45265 45266 45267 45268
 45269 45270 45271 45272 45273 45274 45275 45276 45277 45278 45279 45280 45281
 45282 45283 45284 45285 45286 45287 45288 45289 45290 45291 45292 45293 45294
 45295 45296 45297 45298 45299 45300 45301 45302 45303 45304 45305 45306 45307
 45308 45309 45310 45311 45312 45313 45314 45315 45316 45317 45318 45319 45320
 45321 45322 45323 45324 45325 45326 45327 45328 45329 45330 45331 45332 45333
 45334 45335 45336 45337 45338 45339 45340 45341 45342 45343 45344 45345 45346
 45347 45348 45349 45350 45351 45352 45353 45354 45355 45356 45357 45358 45359
 45360 45361 45362 45363 45364 45365 45366 45367 45368 45369 45370 45371 45372
 45373 45374 45375 45376 45377 45378 45379 45380 45381 45382 45383 45384 45385
 45386 45387 45388 45389 45390 45391 45392 45393 45394 45395 45396 45397 45398
 45399 45400 45401 45402 45403 45404 45405 45406 45407 45408 45409 45410 45411
 45412 45413 45414 45415 45416 45417 45418 45419 45420 45421 45422 45423 45424
 45425 45426 45427 45428 45429 45430 45431 45432 45433 45434 45435 45436 45437
 45438 45439 45440 45441 45442 45443 45444 45445 45446 45447 45448 45449 45450
 45451 45452 45453 45454 45455 45456 45457 45458 45459 45460 45461 45462 45463
 45464 45465 45466 45467 45468 45469 45470 45471 45472 45473 45474 45475 45476
 45477 45478 45479 45480 45481 45482 45483 45484 45485 45486 45487 45488 45489
 45490 45491 45492 45493 45494 45495 45496 45497 45498 45499 45500 45501 45502
 45503 45504 45505 45506 45507 45508 45509 45510 45511 45512 45513 45514 45515
 45516 45517 45518 45519 45520 45521 45522 45523 45524 45525 45526 45527 45528
 45529 45530 45531 45532 45533 45534 45535 45536 45537 45538 45539 45540 45541
 45542 45543 45544 45545 45546 45547 45548 45549 45550 45551 45552 45553 45554
 45555 45556 45557 45558 45559 45560 45561 45562 45563 45564 45565 45566 45567
 45568 45569 45570 45571 45572 45573 45574 45575 45576 45577 45578 45579 45580
 45581 45582 45583 45584 45585 45586 45587 45588 45589 45590 45591 45592 45593
 45594 45595 45596 45597 45598 45599 45600 45601 45602 45603 45604 45605 45606
 45607 45608 45609 45610 45611 45612 45613 45614 45615 45616 45617 45618 45619
 45620 45621 45622 45623 45624 45625 45626 45627 45628 45629 45630 45631 45632
 45633 45634 45635 45636 45637 45638 45639 45640 45641 45642 45643 45644 45645
 45646 45647 45648 45649 45650 45651 45652 45653 45654 45655 45656 45657 45658
 45659 45660 45661 45662 45663 45664 45665 45666 45667 45668 45669 45670 45671
 45672 45673 45674 45675 45676 45677 45678 45679 45680 45681 45682 45683 45684
 45685 45686 45687 45688 45689 45690 45691 45692 45693 45694 45695 45696 45697
 45698 45699 45700 45701 45702 45703 45704 45705 45706 45707 45708 45709 45710
 45711 45712 45713 45714 45715 45716 45717 45718 45719 45720 45721 45722 45723
 45724 45725 45726 45727 45728 45729 45730 45731 45732 45733 45734 45735 45736
 45737 45738 45739 45740 45741 45742 45743 45744 45745 45746 45747 45748 45749
 45750 45751 45752 45753 45754 45755 45756 45757 45758 45759 45760 45761 45762
 45763 45764 45765 45766 45767 45768 45769 45770 45771 45772 45773 45774 45775
 45776 45777 45778 45779 45780 45781 45782 45783 45784 45785 45786 45787 45788
 45789 45790 45791 45792 45793 45794 45795 45796 45797 45798 45799 45800 45801
 45802 45803 45804 45805 45806 45807 45808 45809 45810 45811 45812 45813 45814
 45815 45816 45817 45818 45819 45820 45821 45822 45823 45824 45825 45826 45827
 45828 45829 45830 45831 45832 45833 45834 45835 45836 45837 45838 45839 45840
 45841 45842 45843 45844 45845 45846 45847 45848 45849 45850 45851 45852
[ lower ]
    10    15    17    18    22    25    28    30    32    35    40    41    42
    43    46    50    54    55    57    58    59    60    70    74    75    76
    78    82    90    93    94    95    96    97    98   100   101   103   107
   110   111   116   118   123   127   128   130   132   144   148   150   151
   155   158   159   161   162   164   165   166   167   168   169   170   171
   173   174   175   176   177   180   183   186   188   192   196   197   199
   201   202   206   208   214   216   217   218   226   228   230   232   233
   234   237   239   240   243   245   247   248   251   258   260   261   265
   266   267   276   285   292   297   299   300   301   303   305   306   307
   308   310   311   316   318   319   320   322   326   335   337   338   340
   345   346   349   351   352   354   355   360   363   368   369   370   371
   374   375   377   378   381   385   393   397   398   407   412   416   420
   421   427   432   433   437   438   439   442   443   446   447   450   453
   457   458   459   460   461   463   468   469   471   472   476   480   483
   485   491   492   493   495   497   499   502   507   508   509   510   511
   512   514   515   522   528   529   532   537   539   545   547   549   550
   551   553   555   556   562   564   565   567   568   570   578   579   580
   581   582   583   584   585   586   587   588   590   591   592   594   595
   598   599   600   601   606   608   612   614   618   620   622   624   625
   628   634   636   637   639   640   643   644   645   647   648   649   651
   652   654   659   660   661   662   664   667   669   670   671   673   680
   681   682   683   705   706   707   708   709   711   712   725   730   732
   733   735   738   741   742   744   746   748   751   756   757   758   759
   763   767   771   772   774   775   776   777   780   788   792   793   794
   796   800   803   809   810   813   814   815   816   817   818   820   821
   823   827   830   831   836   838   843   847   848   850   852   864   868
   870   871   875   878   879   881   882   884   885   886   887   888   889
   890   891   894   895   896   897   898   899   902   905   909   911   915
   919   920   922   924   925   929   931   937   939   940   941   950   952
   954   955   957   958   959   962   964   965   968   970   972   973   976
   983   985   986   990   991   992  1001  1010  1018  1023  1025  1026  1027
  1029  1031  1033  1034  1036  1037  1042  1044  1045  1046  1048  1052  1061
  1063  1064  1066  1071  1072  1075  1077  1078  1080  1081  1086  1089  1094
  1095  1096  1097  1100  1101  1103  1104  1107  1111  1119  1123  1124  1133
  1138  1142  1146  1147  1153  1158  1159  1163  1164  1165  1168  1169  1172
  1173  1176  1179  1183  1184  1185  1186  1187  1189  1194  1195  1197  1198
  1202  1206  1209  1211  1217  1218  1219  1221  1223  1225  1228  1233  1234
  1235  1236  1237  1238  1240  1241  1248  1254  1255  1258  1263  1265  1271
  1273  1275  1276  1277  1279  1281  1282  1288  1290  1291  1293  1294  1296
  1304  1306  1307  1308  1309  1310  1311  1312  1313  1314  1315  1317  1318
  1319  1321  1322  1325  1326  1327  1328  1329  1334  1336  1340  1342  1346
  1348  1350  1352  1353  1356  1358  1363  1365  1366  1368  1369  1372  1373
  1374  1375  1376  1377  1378  1379  1381  1382  1384  1389  1390  1391  1393
  1396  1397  1398  1399  1400  1402  1409  1410  1411  1433  1434  1435  1437
  1441  1442  1453  1458  1460  1461  1465  1468  1469  1471  1473  1475  1478
  1483  1484  1485  1486  1489  1493  1497  1498  1500  1501  1502  1503  1513
  1517  1518  1519  1521  1525  1533  1536  1537  1538  1539  1540  1541  1543
  1544  1546  1550  1553  1554  1559  1561  1566  1570  1571  1573  1575  1587
  1591  1593  1594  1598  1601  1602  1604  1605  1607  1608  1609  1610  1611
  1612  1613  1614  1616  1617  1618  1619  1620  1623  1626  1629  1631  1635
  1639  1640  1642  1644  1645  1649  1651  1657  1659  1660  1661  1669  1671
  1673  1675  1676  1677  1680  1682  1683  1686  1688  1690  1691  1694  1701
  1703  1704  1708  1709  1710  1719  1728  1735  1740  1742  1743  1744  1746
  1748  1749  1750  1751  1753  1754  1759  1761  1762  1763  1765  1769  1778
  1780  1781  1783  1788  1789  1792  1794  1795  1797  1798  1803  1806  1811
  1812  1813  1814  1817  1818  1820  1821  1824  1827  1829  1837  1841  1842
  1851  1856  1860  1864  1865  1871  1876  1877  1881  1882  1883  1886  1887
  1890  1891  1894  1897  1901  1902  1903  1904  1905  1907  1912  1913  1915
  1916  1920  1924  1927  1929  1935  1936  1937  1939  1941  1943  1946  1951
  1952  1953  1954  1955  1956  1958  1959  1966  1972  1973  1975  1976  1981
  1983  1989  1991  1993  1994  1995  1997  1999  2000  2006  2008  2009  2011
  2012  2014  2022  2024  2025  2026  2027  2028  2029  2030  2031  2032  2034
  2035  2036  2038  2039  2042  2043  2044  2045  2046  2051  2053  2057  2059
  2063  2065  2067  2069  2070  2073  2079  2081  2082  2084  2085  2087  2088
  2089  2090  2092  2093  2094  2095  2097  2098  2100  2105  2106  2107  2108
  2110  2114  2115  2116  2117  2119  2125  2126  2127  2128  2150  2151  2152
  2153  2154  2155  2156  2157  2158  2161  2173  2178  2180  2181  2183  2186
  2187  2189  2190  2192  2194  2196  2199  2204  2205  2206  2207  2211  2215
  2219  2220  2222  2223  2224  2225  2228  2236  2240  2241  2242  2244  2248
  2251  2258  2261  2262  2263  2264  2265  2266  2268  2269  2271  2275  2278
  2279  2284  2286  2291  2295  2296  2298  2300  2312  2316  2318  2319  2323
  2326  2327  2329  2330  2332  2333  2334  2336  2337  2338  2339  2342  2343
  2344  2345  2346  2347  2350  2353  2357  2359  2363  2367  2368  2370  2372
  2373  2377  2379  2385  2387  2388  2389  2398  2400  2402  2403  2405  2406
  2407  2410  2412  2413  2416  2418  2420  2421  2424  2431  2433  2434  2438
  2439  2440  2449  2458  2466  2471  2473  2474  2475  2477  2479  2480  2481
  2482  2484  2485  2490  2492  2493  2494  2496  2500  2509  2511  2512  2514
  2519  2520  2523  2525  2526  2528  2529  2534  2537  2542  2543  2544  2545
  2548  2549  2551  2552  2555  2558  2560  2568  2572  2579  2582  2587  2591
  2595  2596  2602  2607  2608  2612  2613  2614  2617  2618  2621  2622  2625
  2628  2632  2633  2634  2635  2636  2638  2643  2644  2646  2647  2651  2655
  2658  2660  2666  2667  2668  2670  2672  2674  2677  2682  2683  2684  2685
  2686  2687  2689  2690  2697  2703  2704  2707  2712  2714  2720  2722  2724
  2725  2728  2730  2731  2737  2739  2740  2742  2743  2745  2753  2755  2756
  2757  2758  2759  2760  2761  2762  2763  2764  2766  2767  2768  2771  2774
  2775  2776  2777  2778  2783  2785  2789  2791  2795  2797  2799  2801  2802
  2805  2807  2812  2814  2815  2816  2817  2820  2821  2822  2823  2825  2826
  2827  2829  2830  2836  2837  2838  2842  2843  2844  2845  2846  2847  2849
  2856  2857  2858  2859  2879  2880  2881  2882  2886  2888  2889  2892  2894
  2895  2898  2901  2903  2904  2905  2906  2908  2910  2911  2914  2917  2919
  2920  2921  2922  2923  2924  2938  2943  2945  2946  2950  2953  2954  2956
  2958  2960  2963  2968  2969  2970  2971  2974  2978  2982  2983  2985  2986
  2987  2988  2998  3002  3003  3004  3006  3010  3018  3021  3022  3023  3024
  3025  3026  3028  3029  3031  3035  3038  3039  3044  3046  3051  3055  3056
  3058  3060  3072  3076  3078  3079  3083  3086  3087  3089  3090  3092  3093
  3094  3095  3096  3097  3098  3099  3101  3102  3103  3104  3105  3108  3111
  3114  3116  3120  3124  3125  3127  3129  3130  3134  3136  3142  3144  3145
  3146  3154  3156  3158  3160  3161  3162  3165  3167  3168  3171  3173  3175
  3176  3179  3186  3188  3189  3193  3194  3195  3204  3213  3220  3225  3227
  3228  3229  3231  3233  3234  3235  3236  3238  3239  3244  3246  3247  3248
  3250  3254  3263  3265  3266  3268  3273  3274  3277  3279  3280  3282  3283
  3288  3291  3296  3297  3298  3299  3302  3303  3305  3306  3309  3313  3321
  3325  3326  3335  3340  3344  3348  3349  3355  3360  3361  3365  3366  3367
  3370  3371  3374  3375  3378  3381  3385  3386  3387  3388  3389  3391  3396
  3397  3399  3400  3404  3408  3411  3413  3419  3420  3421  3423  3425  3427
  3430  3435  3436  3437  3438  3439  3440  3442  3443  3450  3456  3457  3460
  3465  3467  3473  3475  3477  3478  3479  3481  3483  3484  3490  3492  3493
  3495  3496  3498  3506  3507  3508  3509  3510  3511  3512  3513  3514  3515
  3516  3518  3519  3520  3522  3523  3526  3527  3528  3529  3534  3536  3540
  3542  3546  3548  3550  3552  3553  3556  3562  3564  3565  3567  3568  3571
  3572  3573  3575  3576  3577  3579  3580  3582  3587  3588  3589  3590  3592
  3595  3597  3598  3599  3601  3608  3609  3610  3611  3633  3634  3635  3636
  3637  3639  3640  3653  3658  3660  3661  3663  3666  3669  3670  3672  3674
  3676  3679  3684  3685  3686  3687  3691  3695  3699  3700  3702  3703  3704
  3705  3708  3716  3720  3721  3722  3724  3728  3731  3738  3741  3742  3743
  3744  3745  3746  3748  3749  3751  3755  3758  3759  3764  3766  3771  3775
  3776  3778  3780  3792  3796  3798  3799  3803  3806  3807  3809  3810  3812
  3813  3814  3815  3816  3817  3818  3819  3822  3823  3824  3825  3826  3827
  3830  3833  3837  3839  3843  3847  3848  3850  3852  3853  3857  3859  3865
  3867  3868  3869  3878  3880  3882  3883  3885  3886  3887  3890  3892  3893
  3896  3898  3900  3901  3904  3911  3913  3914  3918  3919  3920  3929  3938
  3946  3951  3953  3954  3955  3957  3959  3961  3962  3964  3965  3970  3972
  3973  3974  3976  3980  3989  3991  3992  3994  3999  4000  4003  4005  4006
  4008  4009  4014  4017  4022  4023  4024  4025  4028  4029  4031  4032  4035
  4039  4047  4051  4052  4061  4064  4066  4070  4074  4075  4081  4086  4087
  4091  4092  4093  4096  4097  4100  4101  4104  4107  4111  4112  4113  4114
  4115  4117  4122  4123  4125  4126  4130  4134  4137  4139  4145  4146  4147
  4149  4151  4153  4156  4161  4162  4163  4164  4165  4166  4168  4169  4176
  4182  4183  4185  4186  4191  4193  4199  4201  4203  4204  4205  4207  4209
  4210  4216  4218  4219  4221  4222  4224  4232  4234  4235  4236  4237  4238
  4239  4240  4241  4242  4243  4245  4246  4247  4249  4250  4253  4254  4255
  4256  4257  4262  4264  4268  4270  4274  4276  4278  4280  4281  4284  4286
  4291  4293  4294  4296  4297  4300  4301  4302  4303  4304  4305  4306  4307
  4309  4310  4312  4317  4318  4319  4321  4324  4325  4326  4327  4328  4330
  4337  4338  4339  4361  4362  4363  4365  4369  4370  4381  4386  4388  4389
  4393  4394  4396  4397  4399  4401  4403  4406  4411  4412  4413  4414  4417
  4421  4425  4426  4428  4429  4430  4431  4441  4445  4446  4447  4449  4453
  4461  4464  4465  4466  4467  4468  4469  4471  4472  4474  4478  4481  4482
  4487  4489  4494  4498  4499  4501  4503  4515  4519  4521  4522  4526  4529
  4530  4532  4533  4535  4536  4537  4538  4539  4540  4541  4542  4544  4545
  4546  4547  4548  4551  4554  4557  4559  4563  4567  4568  4570  4572  4573
  4577  4579  4585  4587  4588  4589  4597  4599  4601  4603  4604  4605  4608
  4610  4611  4614  4616  4618  4619  4622  4629  4631  4632  4636  4637  4638
  4647  4656  4663  4668  4670  4671  4672  4674  4676  4677  4678  4679  4681
  4682  4687  4689  4690  4691  4693  4697  4706  4708  4709  4711  4716  4717
  4720  4722  4723  4725  4726  4731  4734  4739  4740  4741  4742  4745  4746
  4748  4749  4752  4755  4757  4765  4769  4770  4779  4784  4788  4792  4793
  4799  4804  4805  4809  4810  4811  4814  4815  4818  4819  4822  4825  4829
  4830  4831  4832  4833  4835  4840  4841  4843  4844  4848  4852  4855  4857
  4863  4864  4865  4867  4869  4871  4874  4879  4880  4881  4882  4883  4884
  4886  4887  4894  4900  4901  4903  4904  4909  4911  4917  4919  4921  4922
  4923  4925  4927  4928  4934  4936  4937  4939  4940  4942  4950  4952  4953
  4954  4955  4956  4957  4958  4959  4960  4962  4963  4964  4966  4967  4970
  4971  4972  4973  4974  4979  4981  4985  4987  4991  4993  4995  4997  4998
  5001  5007  5009  5010  5012  5013  5015  5016  5017  5018  5020  5021  5022
  5023  5025  5026  5028  5033  5034  5035  5036  5038  5042  5043  5044  5045
  5047  5053  5054  5055  5056  5078  5079  5080  5081  5082  5083  5084  5085
  5086  5089  5101  5106  5108  5109  5111  5114  5115  5117  5118  5120  5122
  5124  5127  5132  5133  5134  5135  5139  5143  5147  5148  5150  5151  5152
  5153  5156  5164  5168  5169  5170  5172  5176  5179  5186  5189  5190  5191
  5192  5193  5194  5196  5197  5199  5203  5206  5207  5212  5214  5219  5223
  5224  5226  5228  5240  5244  5246  5247  5251  5254  5255  5257  5258  5260
  5261  5262  5264  5265  5266  5267  5270  5271  5272  5273  5274  5275  5278
  5281  5285  5287  5291  5295  5296  5298  5300  5301  5305  5307  5313  5315
  5316  5317  5326  5328  5330  5331  5333  5334  5335  5338  5340  5341  5344
  5346  5348  5349  5352  5359  5361  5362  5366  5367  5368  5377  5386  5394
  5399  5401  5402  5403  5405  5407  5408  5409  5410  5412  5413  5418  5420
  5421  5422  5424  5428  5437  5439  5440  5442  5447  5448  5451  5453  5454
  5456  5457  5462  5465  5470  5471  5472  5473  5476  5477  5479  5480  5483
  5486  5488  5496  5500  5501  5507  5510  5515  5519  5523  5524  5530  5535
  5536  5540  5541  5542  5545  5546  5549  5550  5553  5556  5560  5561  5562
  5563  5564  5566  5571  5572  5574  5579  5583  5586  5588  5594  5595  5596
  5598  5600  5602  5605  5610  5611  5612  5613  5614  5615  5617  5618  5625
  5631  5632  5635  5640  5642  5648  5650  5652  5653  5656  5658  5659  5665
  5667  5668  5670  5671  5673  5681  5683  5684  5685  5686  5687  5688  5689
  5690  5691  5692  5694  5695  5696  5699  5702  5703  5704  5705  5706  5711
  5713  5717  5719  5723  5725  5727  5729  5730  5733  5735  5740  5742  5743
  5744  5745  5748  5749  5750  5751  5753  5754  5755  5757  5758  5764  5765
  5766  5770  5771  5772  5773  5774  5775  5777  5784  5785  5786  5787  5807
  5808  5809  5810  5814  5816  5817  5820  5822  5823  5826  5829  5831  5832
  5833  5834  5836  5838  5839  5842  5845  5847  5848  5849  5850  5851  5852
  5866  5871  5873  5874  5878  5881  5884  5886  5888  5891  5896  5897  5898
  5899  5902  5906  5910  5911  5913  5914  5915  5916  5926  5930  5931  5932
  5934  5938  5946  5949  5950  5951  5952  5953  5954  5956  5957  5959  5963
  5966  5967  5972  5974  5979  5983  5984  5986  5988  6000  6004  6006  6007
  6011  6014  6015  6017  6018  6020  6021  6022  6023  6024  6025  6026  6027
  6029  6030  6031  6032  6033  6036  6039  6042  6044  6048  6052  6053  6055
  6057  6058  6062  6064  6070  6072  6073  6074  6082  6084  6086  6088  6089
  6090  6093  6095  6096  6099  6101  6103  6104  6107  6114  6116  6117  6121
  6122  6123  6132  6141  6148  6153  6155  6156  6157  6159  6161  6162  6163
  6164  6166  6167  6172  6174  6175  6176  6178  6182  6191  6193  6194  6196
  6201  6202  6205  6207  6208  6210  6211  6216  6219  6224  6225  6226  6227
  6230  6231  6233  6234  6237  6241  6249  6253  6254  6263  6268  6272  6276
  6277  6283  6288  6289  6293  6294  6295  6298  6299  6302  6303  6306  6309
  6313  6314  6315  6316  6317  6319  6324  6325  6327  6328  6332  6336  6339
  6341  6347  6348  6349  6351  6353  6355  6358  6363  6364  6365  6366  6367
  6368  6370  6371  6378  6384  6385  6388  6393  6395  6401  6403  6405  6406
  6407  6409  6411  6412  6418  6420  6421  6423  6424  6426  6434  6435  6436
  6437  6438  6439  6440  6441  6442  6443  6444  6446  6447  6448  6450  6451
  6454  6455  6456  6457  6462  6464  6468  6470  6474  6476  6478  6480  6481
  6484  6490  6492  6493  6495  6496  6499  6500  6501  6503  6504  6505  6507
  6508  6510  6515  6516  6517  6518  6520  6523  6525  6526  6527  6529  6536
  6537  6538  6539  6561  6562  6563  6564  6565  6567  6568  6581  6586  6588
  6589  6591  6594  6597  6598  6600  6602  6604  6607  6612  6613  6614  6615
  6619  6623  6627  6628  6630  6631  6632  6633  6636  6644  6648  6649  6650
  6652  6656  6659  6666  6669  6670  6671  6672  6673  6674  6676  6677  6679
  6683  6686  6687  6692  6694  6699  6703  6704  6706  6708  6720  6724  6726
  6727  6731  6734  6735  6737  6738  6740  6741  6742  6743  6744  6745  6746
  6747  6750  6751  6752  6753  6754  6755  6758  6761  6765  6767  6771  6775
  6776  6778  6780  6781  6785  6787  6793  6795  6796  6797  6806  6808  6810
  6811  6813  6814  6815  6818  6820  6821  6824  6826  6828  6829  6832  6839
  6841  6842  6846  6847  6848  6857  6866  6874  6879  6881  6882  6883  6885
  6887  6889  6890  6892  6893  6898  6900  6901  6902  6904  6908  6917  6919
  6920  6922  6927  6928  6931  6933  6934  6936  6937  6942  6945  6950  6951
  6952  6953  6956  6957  6959  6960  6963  6967  6975  6979  6980  6989  6992
  6994  6998  7002  7003  7009  7014  7015  7019  7020  7021  7024  7025  7028
  7029  7032  7035  7039  7040  7041  7042  7043  7045  7050  7051  7053  7054
  7058  7062  7065  7067  7073  7074  7075  7077  7079  7081  7084  7089  7090
  7091  7092  7093  7094  7096  7097  7104  7110  7111  7114  7119  7121  7127
  7129  7131  7132  7133  7135  7137  7138  7144  7146  7147  7149  7150  7152
  7160  7162  7163  7164  7165  7166  7167  7168  7169  7170  7171  7173  7174
  7175  7177  7178  7181  7182  7183  7184  7185  7190  7192  7196  7198  7202
  7204  7206  7208  7209  7212  7214  7219  7221  7222  7224  7225  7228  7229
  7230  7231  7232  7233  7234  7235  7237  7238  7240  7245  7246  7247  7249
  7252  7253  7254  7255  7256  7258  7265  7266  7267  7289  7290  7291  7293
  7297  7298  7309  7314  7316  7317  7321  7322  7324  7325  7327  7329  7331
  7334  7339  7340  7341  7342  7345  7349  7353  7354  7356  7357  7358  7359
  7369  7373  7374  7375  7377  7381  7389  7392  7393  7394  7395  7396  7397
  7399  7400  7402  7406  7409  7410  7415  7417  7422  7426  7427  7429  7431
  7443  7447  7449  7450  7454  7457  7458  7460  7461  7463  7464  7465  7466
  7467  7468  7469  7470  7472  7473  7474  7475  7476  7479  7482  7485  7487
  7491  7495  7496  7498  7500  7501  7505  7507  7513  7515  7516  7517  7525
  7527  7529  7531  7532  7533  7536  7538  7539  7542  7544  7546  7547  7550
  7557  7559  7560  7564  7565  7566  7575  7584  7591  7596  7598  7599  7600
  7602  7604  7605  7606  7607  7609  7610  7615  7617  7618  7619  7621  7625
  7634  7636  7637  7639  7644  7645  7648  7650  7651  7653  7654  7659  7662
  7667  7668  7669  7670  7673  7674  7676  7677  7680  7683  7685  7693  7697
  7698  7707  7712  7716  7720  7721  7727  7732  7733  7737  7738  7739  7742
  7743  7746  7747  7750  7753  7757  7758  7759  7760  7761  7763  7768  7769
  7771  7772  7776  7780  7783  7785  7791  7792  7793  7795  7797  7799  7802
  7807  7808  7809  7810  7811  7812  7814  7815  7822  7828  7829  7831  7832
  7837  7839  7845  7847  7849  7850  7851  7853  7855  7856  7862  7864  7865
  7867  7868  7870  7878  7880  7881  7882  7883  7884  7885  7886  7887  7888
  7890  7891  7892  7894  7895  7898  7899  7900  7901  7902  7907  7909  7913
  7915  7919  7921  7923  7925  7926  7929  7935  7937  7938  7940  7941  7943
  7944  7945  7946  7948  7949  7950  7951  7953  7954  7956  7961  7962  7963
  7964  7966  7970  7971  7972  7973  7975  7981  7982  7983  7984  8006  8007
  8008  8009  8010  8011  8012  8013  8014  8017  8029  8034  8036  8037  8039
  8042  8043  8045  8046  8048  8050  8052  8055  8060  8061  8062  8063  8067
  8071  8075  8076  8078  8079  8080  8081  8084  8092  8096  8097  8098  8100
  8104  8107  8114  8117  8118  8119  8120  8121  8122  8124  8125  8127  8131
  8134  8135  8140  8142  8147  8151  8152  8154  8156  8168  8172  8174  8179
  8182  8183  8185  8186  8188  8189  8190  8192  8193  8194  8195  8198  8199
  8200  8201  8202  8203  8206  8209  8213  8215  8219  8223  8224  8226  8228
  8229  8233  8235  8241  8243  8244  8245  8254  8256  8258  8259  8261  8262
  8263  8266  8268  8269  8272  8274  8276  8277  8280  8287  8289  8290  8294
  8295  8296  8305  8314  8322  8327  8329  8330  8331  8333  8335  8336  8337
  8338  8340  8341  8346  8348  8349  8350  8352  8356  8365  8367  8368  8370
  8375  8376  8379  8381  8382  8384  8385  8390  8393  8398  8399  8400  8401
  8404  8405  8407  8408  8411  8414  8416  8424  8428  8435  8438  8443  8447
  8451  8452  8458  8463  8464  8468  8469  8470  8473  8474  8477  8478  8481
  8484  8488  8489  8490  8491  8492  8494  8499  8500  8502  8507  8511  8514
  8516  8522  8523  8524  8526  8528  8530  8533  8538  8539  8540  8541  8542
  8543  8545  8546  8553  8559  8560  8563  8568  8570  8576  8578  8580  8581
  8584  8586  8587  8593  8595  8596  8598  8599  8601  8609  8611  8612  8613
  8614  8615  8616  8617  8618  8619  8620  8622  8623  8624  8627  8630  8631
  8632  8633  8634  8639  8641  8645  8647  8651  8653  8655  8657  8658  8661
  8663  8668  8670  8671  8672  8673  8676  8677  8678  8679  8681  8682  8683
  8685  8686  8692  8693  8694  8698  8699  8700  8701  8702  8703  8705  8712
  8713  8714  8715  8735  8736  8737  8738  8742  8744  8745  8748  8750  8751
  8754  8757  8759  8760  8761  8762  8764  8766  8767  8770  8773  8775  8776
  8777  8778  8779  8780  8794  8799  8801  8802  8806  8809  8810  8812  8814
  8816  8819  8824  8825  8826  8827  8830  8834  8838  8839  8841  8842  8843
  8844  8854  8858  8859  8860  8862  8866  8874  8877  8878  8879  8880  8881
  8882  8884  8885  8887  8891  8894  8895  8900  8902  8907  8911  8912  8914
  8916  8928  8932  8934  8935  8939  8942  8943  8945  8946  8948  8949  8950
  8951  8952  8953  8954  8955  8957  8958  8959  8960  8961  8964  8967  8970
  8972  8976  8980  8981  8983  8985  8986  8990  8992  8998  9000  9001  9002
  9010  9012  9014  9016  9017  9018  9021  9023  9024  9027  9029  9031  9032
  9035  9042  9044  9045  9049  9050  9051  9060  9069  9076  9081  9083  9084
  9085  9087  9089  9090  9091  9092  9094  9095  9100  9102  9103  9104  9106
  9110  9119  9121  9122  9124  9129  9130  9133  9135  9136  9138  9139  9144
  9147  9152  9153  9154  9155  9158  9159  9161  9162  9165  9169  9177  9181
  9182  9191  9196  9200  9204  9205  9211  9216  9217  9221  9222  9223  9226
  9227  9230  9231  9234  9237  9241  9242  9243  9244  9245  9247  9252  9253
  9255  9256  9260  9264  9267  9269  9275  9276  9277  9279  9281  9283  9286
  9291  9292  9293  9294  9295  9296  9298  9299  9306  9312  9313  9316  9321
  9323  9329  9331  9333  9334  9335  9337  9339  9340  9346  9348  9349  9351
  9352  9354  9362  9363  9364  9365  9366  9367  9368  9369  9370  9371  9372
  9374  9375  9376  9378  9379  9382  9383  9384  9385  9390  9392  9396  9398
  9402  9404  9406  9408  9409  9412  9418  9420  9421  9423  9424  9427  9428
  9429  9431  9432  9433  9435  9436  9438  9443  9444  9445  9446  9448  9451
  9453  9454  9455  9457  9464  9465  9466  9467  9489  9490  9491  9492  9493
  9495  9496  9509  9514  9516  9517  9519  9522  9525  9526  9528  9530  9532
  9535  9540  9541  9542  9543  9547  9551  9555  9556  9558  9559  9560  9561
  9564  9572  9576  9577  9578  9580  9584  9587  9594  9597  9598  9599  9600
  9601  9602  9604  9605  9607  9611  9614  9615  9620  9622  9627  9631  9632
  9634  9636  9648  9652  9654  9655  9659  9662  9663  9665  9666  9668  9669
  9670  9671  9672  9673  9674  9675  9678  9679  9680  9681  9682  9683  9686
  9689  9693  9695  9699  9703  9704  9706  9708  9709  9713  9715  9721  9723
  9724  9725  9734  9736  9738  9739  9741  9742  9743  9746  9748  9749  9752
  9754  9756  9757  9760  9767  9769  9770  9774  9775  9776  9785  9794  9802
  9807  9809  9810  9811  9813  9815  9817  9818  9820  9821  9826  9828  9829
  9830  9832  9836  9845  9847  9848  9850  9855  9856  9859  9861  9862  9864
  9865  9870  9873  9878  9879  9880  9881  9884  9885  9887  9888  9891  9895
  9903  9907  9908  9917  9922  9926  9930  9931  9937  9942  9943  9947  9948
  9949  9952  9953  9956  9957  9960  9963  9967  9968  9969  9970  9971  9973
  9978  9979  9981  9982  9986  9990  9993  9995 10001 10002 10003 10005 10007
 10009 10012 10017 10018 10019 10020 10021 10022 10024 10025 10032 10038 10039
 10042 10047 10049 10055 10057 10059 10060 10061 10063 10065 10066 10072 10074
 10075 10077 10078 10080 10088 10090 10091 10092 10093 10094 10095 10096 10097
 10098 10099 10101 10102 10103 10105 10106 10109 10110 10111 10112 10113 10118
 10120 10124 10126 10130 10132 10134 10136 10137 10140 10142 10147 10149 10150
 10152 10153 10156 10157 10158 10159 10160 10161 10162 10163 10165 10166 10168
 10173 10174 10175 10177 10180 10181 10182 10183 10184 10186 10193 10194 10195
 10217 10218 10219 10221 10225 10226 10237 10242 10244 10245 10249 10252 10253
 10255 10257 10259 10262 10267 10268 10269 10270 10273 10277 10281 10282 10284
 10285 10286 10287 10297 10301 10302 10303 10305 10309 10317 10320 10321 10322
 10323 10324 10325 10327 10328 10330 10334 10337 10338 10343 10345 10350 10354
 10355 10357 10359 10371 10375 10377 10378 10382 10385 10386 10388 10389 10391
 10392 10393 10394 10395 10396 10397 10398 10400 10401 10402 10403 10404 10407
 10410 10413 10415 10419 10423 10424 10426 10428 10429 10433 10435 10441 10443
 10444 10445 10453 10455 10457 10459 10460 10461 10464 10466 10467 10470 10472
 10474 10475 10478 10485 10487 10488 10492 10493 10494 10503 10512 10519 10524
 10526 10527 10528 10530 10532 10533 10534 10535 10537 10538 10543 10545 10546
 10547 10549 10553 10562 10564 10565 10567 10572 10573 10576 10578 10579 10581
 10582 10587 10590 10595 10596 10597 10598 10601 10602 10604 10605 10608 10611
 10613 10621 10625 10626 10635 10640 10644 10648 10649 10655 10660 10661 10665
 10666 10667 10670 10671 10674 10675 10678 10681 10685 10686 10687 10688 10689
 10691 10696 10697 10699 10700 10704 10708 10711 10713 10719 10720 10721 10723
 10725 10727 10730 10735 10736 10737 10738 10739 10740 10742 10743 10750 10756
 10757 10759 10760 10765 10767 10773 10775 10777 10778 10779 10781 10783 10784
 10790 10792 10793 10795 10796 10798 10806 10808 10809 10810 10811 10812 10813
 10814 10815 10816 10818 10819 10820 10822 10823 10826 10827 10828 10829 10830
 10835 10837 10841 10843 10847 10849 10851 10853 10854 10857 10863 10865 10866
 10868 10869 10871 10872 10873 10874 10876 10877 10878 10879 10881 10882 10884
 10889 10890 10891 10892 10894 10898 10899 10900 10901 10903 10909 10910 10911
 10912 10934 10935 10936 10937 10938 10939 10940 10941 10942 10945 10957 10962
 10964 10965 10967 10970 10971 10973 10974 10976 10978 10980 10983 10988 10989
 10990 10991 10995 10999 11003 11004 11006 11007 11008 11009 11012 11020 11024
 11025 11026 11028 11032 11035 11042 11045 11046 11047 11048 11049 11050 11052
 11053 11055 11059 11062 11063 11068 11070 11075 11079 11080 11082 11084 11096
 11100 11102 11103 11107 11110 11111 11113 11114 11116 11117 11118 11120 11121
 11122 11123 11126 11127 11128 11129 11130 11131 11134 11137 11141 11143 11147
 11151 11152 11154 11156 11157 11161 11163 11169 11171 11172 11173 11182 11184
 11186 11187 11189 11190 11191 11194 11196 11197 11200 11202 11204 11205 11208
 11215 11217 11218 11222 11223 11224 11233 11242 11250 11255 11257 11258 11259
 11261 11263 11264 11265 11266 11268 11269 11274 11276 11277 11278 11280 11284
 11293 11295 11296 11298 11303 11304 11307 11309 11310 11312 11313 11318 11321
 11326 11327 11328 11329 11332 11333 11335 11336 11339 11342 11344 11352 11356
 11363 11366 11371 11375 11379 11380 11386 11391 11392 11396 11397 11398 11401
 11402 11405 11406 11409 11412 11416 11417 11418 11419 11420 11422 11427 11428
 11430 11435 11439 11442 11444 11450 11451 11452 11454 11456 11458 11461 11466
 11467 11468 11469 11470 11471 11473 11474 11481 11487 11488 11491 11496 11498
 11504 11506 11508 11509 11512 11514 11515 11521 11523 11524 11526 11527 11529
 11537 11539 11540 11541 11542 11543 11544 11545 11546 11547 11548 11550 11551
 11552 11555 11558 11559 11560 11561 11562 11567 11569 11573 11575 11579 11581
 11583 11585 11586 11589 11591 11596 11598 11599 11600 11601 11604 11605 11606
 11607 11609 11610 11611 11613 11614 11620 11621 11622 11626 11627 11628 11629
 11630 11631 11633 11640 11641 11642 11643 11663 11664 11665 11666 11670 11672
 11673 11676 11678 11679 11682 11685 11687 11688 11689 11690 11692 11694 11695
 11698 11701 11703 11704 11705 11706 11707 11708
